LAMMPS (7 Jan 2022)
Reading data file ...
  orthogonal box = (0 0 0) to (10.247 11.313 36.8015)
  1 by 1 by 1 MPI processor grid
  reading atoms ...
  426 atoms
  read_data CPU = 0.005 seconds
Summary of lammps deepmd module ...
  >>> Info of deepmd-kit:
  installed to:       /home/mandrade/dpmd_root
  source:             v2.1.0
  source branch:       master
  source commit:      3e54fea
  source commit at:   2022-03-07 11:41:41 +0800
  surpport model ver.:1.1 
  build float prec:   double
  build with tf inc:  /home/mandrade/dpmd_root/include;/home/mandrade/dpmd_root/include
  build with tf lib:  /home/mandrade/dpmd_root/lib/libtensorflow_cc.so;/home/mandrade/dpmd_root/lib/libtensorflow_framework.so
  set tf intra_op_parallelism_threads: 0
  set tf inter_op_parallelism_threads: 0
  >>> Info of lammps module:
  use deepmd-kit at:  /home/mandrade/dpmd_root
  source:             v2.1.0
  source branch:      master
  source commit:      3e54fea
  source commit at:   2022-03-07 11:41:41 +0800
  build float prec:   double
  build with tf inc:  /home/mandrade/dpmd_root/include;/home/mandrade/dpmd_root/include
  build with tf lib:  /home/mandrade/dpmd_root/lib/libtensorflow_cc.so;/home/mandrade/dpmd_root/lib/libtensorflow_framework.so
  >>> Info of model(s):
  using   3 model(s): ../train/1/graph1.pb ../train/2/graph2.pb ../train/3/graph3.pb 
  rcut in model:      6
  ntypes in model:    3
New timer settings: style=normal  mode=nosync  timeout=02:00:00

CITE-CITE-CITE-CITE-CITE-CITE-CITE-CITE-CITE-CITE-CITE-CITE-CITE

Your simulation uses code contributions which should be cited:
- USER-DEEPMD package:
The log file lists these citations in BibTeX format.

CITE-CITE-CITE-CITE-CITE-CITE-CITE-CITE-CITE-CITE-CITE-CITE-CITE

  generated 0 of 3 mixed pair_coeff terms from geometric mixing rule
Neighbor list info ...
  update every 1 steps, delay 10 steps, check yes
  max neighbors/atom: 2000, page size: 100000
  master list distance cutoff = 8
  ghost atom cutoff = 8
  binsize = 4, bins = 3 3 10
  1 neighbor lists, perpetual/occasional/extra = 1 0 0
  (1) pair deepmd, perpetual
      attributes: full, newton on
      pair build: full/bin/atomonly
      stencil: full/bin/3d
      bin: standard
Setting up Verlet run ...
  Unit style    : metal
  Current step  : 0
  Time step     : 0.0005
  Walltime left : 1:59:59.99
Per MPI rank memory allocation (min/avg/max) = 4.22 | 4.22 | 4.22 Mbytes
Step Temp PotEng TotEng Press 
       0          330   -185983.69   -185965.56     5554.233 
     100     341.1282   -185984.32   -185965.58     1729.041 
     200    343.40134   -185984.65   -185965.78    -3175.915 
     300    321.28776   -185984.12   -185966.47   -6969.7398 
     400    310.22791   -185984.45   -185967.41   -9435.1157 
     500    299.28895   -185984.32   -185967.88   -8877.8827 
     600    298.22465   -185984.19    -185967.8   -4132.5533 
     700    329.13994   -185985.54   -185967.46    929.97071 
     800    323.61379   -185984.88    -185967.1    8103.4192 
     900    328.08308   -185984.82    -185966.8    9658.0024 
    1000    327.99767   -185984.61   -185966.59    3914.0305 
    1100    329.55291   -185984.49   -185966.38   -899.27879 
    1200    344.19061   -185985.08   -185966.18   -423.72279 
    1300    341.32154   -185984.89   -185966.14   -1389.0152 
    1400    306.80876   -185983.15    -185966.3    502.33742 
    1500    335.31623   -185984.78   -185966.36   -7243.0494 
    1600    349.58496   -185985.76   -185966.56   -6501.6769 
    1700    320.85391   -185984.67   -185967.04    811.63928 
    1800    320.63653    -185985.4   -185967.79    124.60079 
    1900    326.97744   -185986.39   -185968.43    4791.5596 
    2000     322.6752   -185986.43    -185968.7    3260.4618 
    2100     305.9462   -185985.28   -185968.48    490.44315 
    2200     327.4065   -185985.62   -185967.64    -289.8964 
    2300    341.30307   -185985.55    -185966.8   -3469.5508 
    2400    341.28289   -185985.25    -185966.5   -3139.3377 
    2500    321.95829   -185984.14   -185966.45     2441.713 
    2600      339.757   -185985.12   -185966.46    -429.9263 
    2700    330.58781    -185984.7   -185966.53    604.61077 
    2800    315.33605   -185984.09   -185966.77    3662.6397 
    2900    325.90417      -185985    -185967.1    4632.3723 
    3000    311.43094    -185984.8   -185967.69    2300.4945 
    3100    330.87858   -185986.62   -185968.44   -847.87938 
    3200    306.39853    -185985.8   -185968.96    5578.8874 
    3300    319.65414   -185986.67   -185969.11   -2097.7782 
    3400    312.90411    -185986.1   -185968.91    317.64212 
    3500    319.19394   -185985.53   -185967.99    -1988.827 
    3600    316.04355   -185984.16   -185966.79   -1077.7054 
    3700    323.33637   -185983.99   -185966.23   -4457.4338 
    3800    323.03761   -185983.68   -185965.94   -10029.183 
    3900    346.37273    -185984.8   -185965.77   -4029.0715 
    4000    337.15926   -185984.35   -185965.83   -818.04435 
    4100    328.16766   -185984.24   -185966.22   -2445.8054 
    4200    322.60949   -185984.47   -185966.75    829.97828 
    4300     302.4945   -185984.09   -185967.47   -451.17091 
    4400    331.75505   -185986.13   -185967.91    -6239.918 
    4500    304.22116   -185984.76   -185968.05   -3044.4473 
    4600    312.11955   -185984.88   -185967.73    3216.7904 
    4700     327.1205   -185984.51   -185966.54     3826.816 
    4800    332.48483   -185983.73   -185965.46   -2155.2644 
    4900    360.54021   -185985.08   -185965.27    5771.2808 
    5000    331.47983   -185983.73   -185965.52    2844.7651 
    5100    344.90256   -185984.85    -185965.9   -1596.3277 
    5200    320.70631   -185984.14   -185966.52   -2054.9252 
    5300    342.98678    -185985.8   -185966.96   -897.66819 
    5400    333.44369   -185985.71   -185967.39   -1583.8457 
    5500    324.55884   -185985.44   -185967.62    2772.8776 
    5600    316.95914   -185984.96   -185967.55     5823.818 
    5700    336.80433   -185985.34   -185966.84    610.93431 
    5800    349.23988   -185984.56   -185965.38   -3026.5261 
    5900    337.78127   -185983.32   -185964.76   -4509.2231 
    6000    330.39575    -185982.9   -185964.75    622.19576 
    6100    332.18376    -185983.3   -185965.05   -2474.9593 
    6200    351.30656   -185984.84   -185965.54   -11183.374 
    6300    308.69376   -185983.12   -185966.16   -7546.0645 
    6400    332.84465   -185984.86   -185966.57   -4124.3603 
    6500    330.55359   -185984.97   -185966.81   -2766.0957 
    6600      341.876   -185985.82   -185967.04    1349.5115 
    6700     336.9384   -185985.83   -185967.32    561.59266 
    6800     316.5186   -185985.25   -185967.86     2674.321 
    6900    297.49132   -185984.95   -185968.61   -6012.8828 
    7000    313.93035    -185986.3   -185969.05    -5800.379 
    7100    290.33185   -185984.94   -185968.99   -4210.3396 
    7200    301.10494   -185984.73   -185968.19   -6154.4212 
    7300    332.72217   -185985.48    -185967.2   -465.81401 
    7400    324.61279   -185984.63    -185966.8    6631.2443 
    7500    327.59489   -185984.57   -185966.58    3767.3714 
    7600    321.44214   -185984.05   -185966.39    2509.7588 
    7700    343.59263   -185984.99   -185966.12    911.06106 
    7800    334.21585    -185984.1   -185965.74   -7182.1456 
    7900    341.61592   -185984.16   -185965.39   -7086.0559 
    8000    339.80844   -185983.81   -185965.14   -4471.7826 
    8100    339.13728   -185983.48   -185964.85   -4035.7127 
    8200    341.29475   -185983.41   -185964.66   -5202.1914 
    8300    325.67994    -185982.6   -185964.71     -4856.25 
    8400    337.33889   -185983.63   -185965.09    765.29089 
    8500    345.71543   -185984.79   -185965.79    506.78346 
    8600    349.95973   -185985.76   -185966.54   -2760.7168 
    8700    326.40504   -185985.07   -185967.14   -3541.8488 
    8800    327.78685   -185985.43   -185967.42   -6206.0642 
    8900    315.91559   -185984.87   -185967.51   -5743.2129 
    9000    326.60511    -185985.4   -185967.46   -1294.4879 
    9100    313.40026   -185984.44   -185967.23   -6113.8144 
    9200    332.39973   -185984.62   -185966.36    -3440.143 
    9300     345.4474   -185984.15   -185965.17    662.29537 
    9400    362.12811   -185984.66   -185964.77    7578.9828 
    9500    332.05003   -185983.07   -185964.83   -155.29619 
    9600    333.12885   -185983.53   -185965.23   -1994.1428 
    9700     330.7411   -185983.91   -185965.74   -4735.8079 
    9800    329.54603   -185984.21   -185966.11   -2381.9968 
    9900    353.71867   -185985.79   -185966.36   -5647.1411 
   10000    341.80255   -185985.51   -185966.73   -5096.5123 
   10100    339.70337   -185985.59   -185966.93   -4450.1084 
   10200    336.52484    -185985.6   -185967.12   -977.46287 
   10300    321.27484   -185984.84   -185967.19   -1333.9015 
   10400    324.29247   -185984.93   -185967.11    -2663.935 
   10500    340.31696   -185985.54   -185966.85   -423.91493 
   10600    332.42417   -185984.69   -185966.42    138.64302 
   10700     344.1073   -185984.52   -185965.62   -8702.2133 
   10800    342.44362   -185983.27   -185964.46   -5162.9414 
   10900    356.57243   -185983.47   -185963.88    -4171.244 
   11000    339.63238   -185982.66   -185964.01   -3651.6453 
   11100    361.19011   -185984.42   -185964.58    -5081.757 
   11200    342.14622   -185984.13   -185965.33   -5313.4518 
   11300    339.59169   -185984.43   -185965.78    433.47683 
   11400     342.7204   -185985.09   -185966.27   -4344.0941 
   11500    326.25511   -185984.75   -185966.83   -712.82186 
   11600    323.64109   -185985.02   -185967.24   -1417.2461 
   11700    335.65297   -185985.99   -185967.55    -957.2453 
   11800    318.37195   -185985.32   -185967.83   -6302.7307 
   11900    309.25725   -185984.77   -185967.78   -11830.473 
   12000    313.51296    -185984.6   -185967.37    3364.7198 
   12100    350.75485   -185985.76   -185966.49   -1293.1314 
   12200     343.8299   -185984.39    -185965.5    5566.1731 
   12300    338.40713    -185983.6   -185965.01    4202.3411 
   12400    355.47103   -185984.47   -185964.94    -600.2913 
   12500    340.56693   -185984.29   -185965.58   -2680.2971 
   12600    350.27833   -185985.41   -185966.17   -7430.7252 
   12700    323.32073   -185984.33   -185966.57   -3428.9452 
   12800    333.18231   -185985.09   -185966.79   -2598.1572 
   12900    325.72887   -185984.92   -185967.03    2255.5117 
   13000    319.18419   -185984.77   -185967.24    554.58656 
   13100    340.22561   -185985.88   -185967.19    3724.7047 
   13200    346.88294   -185986.17   -185967.12   -3600.8269 
   13300    313.49721    -185984.3   -185967.08   -7991.0621 
   13400    333.74838   -185985.36   -185967.02   -2398.4906 
   13500    334.60188   -185985.32   -185966.94   -7536.4495 
   13600    322.68669   -185984.43   -185966.71   -3244.8773 
   13700    329.10645   -185984.38    -185966.3   -3358.7738 
   13800    341.26684   -185984.64    -185965.9   -1230.8118 
   13900    336.30826   -185984.14   -185965.66   -1523.6465 
   14000    353.98938   -185985.23   -185965.78    -2652.942 
   14100    333.03095   -185984.82   -185966.53   -1424.6808 
   14200    323.44803   -185985.24   -185967.47   -10274.624 
   14300     317.6574   -185985.42   -185967.97   -2233.2176 
   14400    330.62357   -185986.26    -185968.1   -3709.5986 
   14500    312.37315   -185985.24   -185968.08   -1360.6575 
   14600     332.5948   -185986.05   -185967.78   -859.75018 
   14700    332.61542   -185985.66   -185967.38    -3802.146 
   14800    322.56239   -185984.64   -185966.92   -8198.2493 
   14900    337.46566   -185984.62   -185966.08    -4443.617 
   15000    341.68386   -185983.78   -185965.01      -5256.5 
   15100     340.1095   -185983.21   -185964.53    2315.8702 
   15200    349.49981   -185983.93   -185964.73    1922.8785 
   15300    339.78841   -185983.79   -185965.13    4773.0975 
   15400    328.98362   -185983.73   -185965.66     3640.531 
   15500    329.84579   -185984.21   -185966.09   -5125.5566 
   15600    318.71425   -185983.93   -185966.42   -2886.8938 
   15700    332.81438   -185985.02   -185966.74   -6182.9647 
   15800    305.14532   -185983.87   -185967.11   -8876.1286 
   15900    318.87675   -185984.89   -185967.37   -5158.0169 
   16000    329.76922    -185985.6   -185967.49   -3447.7633 
   16100     309.4611   -185984.49   -185967.49    380.18059 
   16200      340.127   -185985.74   -185967.05    4788.2301 
   16300    331.68286   -185984.62    -185966.4    933.26918 
   16400    342.58831   -185984.45   -185965.63    1837.7012 
   16500     360.8481   -185984.93   -185965.11   -2956.3179 
   16600    343.47391   -185984.02   -185965.15   -4037.0295 
   16700      337.387   -185984.22   -185965.69   -713.80521 
   16800    335.11901   -185984.81    -185966.4    -1705.811 
   16900    321.34362   -185984.58   -185966.92   -6297.5038 
   17000    327.37337   -185985.05   -185967.07   -3445.4477 
   17100    333.20026   -185985.35   -185967.05    -3552.163 
   17200    331.57979   -185985.19   -185966.97   -365.52027 
   17300    317.51868   -185984.31   -185966.87   -4835.9504 
   17400    348.43599   -185985.84    -185966.7   -422.39312 
   17500    341.01298   -185985.28   -185966.54   -1767.1668 
   17600    327.35255   -185984.42   -185966.44    2139.2768 
   17700    348.90005   -185985.29   -185966.12   -3671.6165 
   17800    342.06397   -185984.23   -185965.44    200.65254 
   17900    340.91034   -185983.23    -185964.5    8067.8482 
   18000     361.1361   -185983.91   -185964.07    3349.1785 
   18100    336.68651   -185982.89    -185964.4   -3028.7649 
   18200    340.48219   -185983.93   -185965.23   -6198.7821 
   18300    337.29574   -185984.54   -185966.01   -6991.0949 
   18400    341.84146    -185985.2   -185966.43   -3979.1277 
   18500    336.10375   -185985.08   -185966.61   -4102.3652 
   18600    334.34418   -185985.14   -185966.78    1086.7578 
   18700     330.0395    -185985.1   -185966.97   -392.60513 
   18800    313.13283   -185984.35   -185967.15   -925.99986 
   18900    340.59146    -185985.9   -185967.19    1897.9994 
   19000    334.92105   -185985.85   -185967.46   -1078.8377 
   19100    335.40103   -185986.48   -185968.05   -4510.9649 
   19200    326.73956   -185986.83   -185968.88   -4336.8072 
   19300    322.52604   -185987.05   -185969.33   -643.75092 
   19400    309.40715   -185986.36   -185969.36    430.71178 
   19500    327.64499   -185986.93   -185968.93    3515.4705 
   19600    313.03548   -185985.27   -185968.07    1892.5499 
   19700    337.95403   -185985.81   -185967.24    8197.6438 
   19800    341.05214   -185985.65   -185966.91    4391.2889 
   19900    324.66883   -185984.55   -185966.71    491.31373 
   20000    330.07392   -185984.78   -185966.65   -2955.0558 
   20100    342.55212   -185985.64   -185966.82   -4209.8604 
   20200     326.6929   -185985.12   -185967.17   -495.40659 
   20300    320.46374   -185985.37   -185967.76    212.06754 
   20400    334.18431   -185986.74   -185968.38   -3830.2947 
   20500    308.21879   -185985.78   -185968.85    -4396.285 
   20600    330.96031   -185987.29   -185969.11   -5010.0452 
   20700    327.10524   -185987.16   -185969.19   -863.55547 
   20800    303.44834   -185985.63   -185968.96    470.00968 
   20900    311.00051   -185985.21   -185968.12    3285.6419 
   21000      335.871   -185985.61   -185967.16    8254.6975 
   21100    350.15643   -185985.83    -185966.6   -772.87983 
   21200    323.90022   -185984.03   -185966.24    2120.0412 
   21300    356.05796   -185985.57   -185966.01   -4522.6796 
   21400    349.10229   -185985.44   -185966.26   -1436.5115 
   21500    334.32591   -185985.38   -185967.01   -3780.7475 
   21600    339.33124   -185986.45   -185967.81    2724.0147 
   21700       307.67   -185985.13   -185968.23    1790.0414 
   21800    323.02642   -185986.08   -185968.34    1811.1327 
   21900    319.71584   -185985.86    -185968.3    1670.1345 
   22000    324.30043   -185985.84   -185968.03   -3625.3988 
   22100    332.99836   -185985.93   -185967.64   -2284.7176 
   22200    326.00673   -185985.32   -185967.41    1141.8956 
   22300    332.88297   -185985.61   -185967.32    4736.9169 
   22400    333.02991   -185985.62   -185967.32    133.17066 
   22500    326.87401   -185985.36    -185967.4    4074.7418 
   22600    348.04088   -185986.58   -185967.46   -2706.6367 
   22700    330.12814   -185985.69   -185967.55   -711.41743 
   22800    360.43038   -185987.56   -185967.76   -4540.7083 
   22900    331.69793   -185986.32    -185968.1   -4168.5829 
   23000    326.91311   -185986.32   -185968.36    -4049.791 
   23100    334.88173   -185986.81   -185968.42    2870.5097 
   23200    325.22711   -185986.29   -185968.42    7259.1506 
   23300    345.34783   -185987.38   -185968.41    981.88744 
   23400    336.78802   -185987.04   -185968.53    3000.9752 
   23500    318.46427   -185986.37   -185968.88   -590.85748 
   23600    314.34889   -185986.39   -185969.12   -3946.8427 
   23700    322.67336   -185986.77   -185969.05   -8756.7861 
   23800     310.6859   -185985.81   -185968.74   -9803.2782 
   23900    326.62022   -185986.09   -185968.15   -1775.2562 
   24000    344.03198   -185986.44   -185967.54    4067.0367 
   24100    334.37782   -185985.62   -185967.25    3427.9798 
   24200    330.79563   -185985.33   -185967.16    4506.8154 
   24300    337.52455   -185985.73   -185967.19    2952.9961 
   24400    329.40387   -185985.57   -185967.48    5779.5615 
   24500    322.47797   -185986.09   -185968.37   -5241.1341 
   24600    314.50268   -185986.53   -185969.25   -4233.3264 
   24700    330.94146   -185987.84   -185969.66    -5173.505 
   24800    332.22957   -185987.85    -185969.6   -372.41967 
   24900    329.26113   -185987.26   -185969.17    2354.4767 
   25000    332.48214   -185986.84   -185968.57    4523.2717 
   25100    312.84312   -185985.21   -185968.03    3515.5494 
   25200    319.79569   -185985.15   -185967.58    7543.6467 
   25300    343.32321   -185986.29   -185967.43   -4293.3235 
   25400    342.46847   -185986.35   -185967.54   -5005.5183 
   25500    338.13476   -185986.32   -185967.75   -3463.0516 
   25600    341.69491   -185986.91   -185968.14    2648.8939 
   25700    335.07233   -185986.93   -185968.52   -3100.3637 
   25800    320.16532   -185986.25   -185968.66   -2543.7794 
   25900    334.95227   -185986.94   -185968.54   -430.85872 
   26000    333.81324   -185986.66   -185968.32    3837.5105 
   26100    332.18218   -185986.06   -185967.81   -68.161488 
   26200    352.52338   -185986.37   -185967.01    5437.8496 
   26300    361.09134   -185986.39   -185966.55    1373.1429 
   26400    351.83918   -185986.12   -185966.79   -4057.6847 
   26500    336.05298   -185986.08   -185967.62    1338.6376 
   26600    316.48797   -185985.91   -185968.52    1203.4808 
   26700    311.07378   -185986.12   -185969.03    504.00558 
   26800    336.30794   -185987.54   -185969.07   -2061.7332 
   26900    330.81328   -185987.15   -185968.98   -786.78577 
   27000    352.00546   -185988.35   -185969.01     4783.409 
   27100     310.8734    -185986.2   -185969.12     4829.729 
   27200    319.88085   -185986.59   -185969.02    2002.7825 
   27300    327.08669   -185986.37   -185968.41    5900.5431 
   27400    334.92325   -185985.76   -185967.36   -116.98348 
   27500    347.05582   -185985.72   -185966.65   -5648.0991 
   27600    360.47467   -185986.33   -185966.52    -1236.649 
   27700    340.30626   -185985.75   -185967.06   -3764.4158 
   27800    325.57745   -185985.83   -185967.94   -1465.6515 
   27900    317.30659    -185985.8   -185968.37    2747.6241 
   28000    327.37514   -185986.54   -185968.56    3011.2888 
   28100    320.91487   -185986.36   -185968.73    4309.4519 
   28200    311.85469   -185985.88   -185968.75    885.34678 
   28300    319.88284   -185986.09   -185968.52     790.1891 
   28400    331.95918   -185986.27   -185968.04   -1186.0319 
   28500    338.99455    -185985.7   -185967.08    133.09753 
   28600    346.96997   -185985.27   -185966.21    16.932012 
   28700      362.479   -185985.98   -185966.07    3353.8056 
   28800    344.35546   -185985.35   -185966.43   -277.54532 
   28900    360.21332   -185986.77   -185966.98   -2462.1143 
   29000    335.95336   -185986.04   -185967.59   -1855.8989 
   29100    318.32063   -185985.39    -185967.9   -1152.3573 
   29200     333.5896   -185986.33   -185968.01   -2760.0973 
   29300    325.93486   -185986.02   -185968.11   -1789.4796 
   29400    331.74531   -185986.41   -185968.19    -1110.316 
   29500    315.90717   -185985.56   -185968.21   -1079.1544 
   29600    322.22814   -185985.86   -185968.16    2410.2678 
   29700    349.53429   -185986.98   -185967.77   -843.09678 
   29800    340.66624   -185986.01   -185967.29   -2067.9643 
   29900    367.11353   -185987.02   -185966.85    652.55332 
   30000    319.89139    -185984.2   -185966.63   -2303.9223 
   30100    334.00402   -185985.06   -185966.71    3714.4981 
   30200    342.52457   -185986.15   -185967.33    1869.2353 
   30300    318.02412   -185985.82   -185968.34   -3042.8781 
   30400    315.99666   -185986.35   -185968.99     3829.058 
   30500    313.06885   -185986.46   -185969.26    3149.9629 
   30600    331.52482   -185987.53   -185969.32    1427.0017 
   30700    317.40846   -185986.76   -185969.32   -1050.8483 
   30800    324.27774   -185986.94   -185969.12   -2272.0395 
   30900    339.18299   -185987.32   -185968.68    489.62897 
   31000    331.10654   -185986.08   -185967.89    287.08469 
   31100    344.49734   -185985.75   -185966.82     996.6141 
   31200    346.17466   -185985.26   -185966.24   -1297.6417 
   31300    333.34155   -185984.58   -185966.27    72.888172 
   31400    330.40751   -185984.78   -185966.63   -1764.4075 
   31500     334.6709   -185985.46   -185967.07    -3180.794 
   31600    330.43192   -185985.61   -185967.46   -1429.3258 
   31700    325.80151   -185985.65   -185967.75   -2664.9589 
   31800    323.72234   -185985.68   -185967.89   -3837.4691 
   31900    329.86752   -185985.98   -185967.86   -3125.3417 
   32000    349.10636   -185987.12   -185967.94   -956.77822 
   32100    331.05037    -185986.3   -185968.12   -1568.0707 
   32200    316.59033   -185985.55   -185968.16   -3581.7734 
   32300     342.7288   -185986.62   -185967.79    -876.4351 
   32400    333.65265   -185985.31   -185966.98    -1147.457 
   32500    339.90969   -185984.97    -185966.3   -2688.4285 
   32600    358.33816   -185985.68   -185965.99   -954.70737 
   32700    332.86225   -185984.58   -185966.29    -2581.211 
   32800    336.07439   -185985.57    -185967.1   -2950.4298 
   32900    328.45563   -185985.87   -185967.82   -3552.0592 
   33000     319.1667   -185985.68   -185968.15   -1768.6939 
   33100    337.61705   -185986.72   -185968.17    1489.4108 
   33200    329.92375   -185986.37   -185968.24    5399.9678 
   33300    336.25242   -185986.67    -185968.2    8394.4843 
   33400     335.5455   -185986.52   -185968.09    1190.6359 
   33500    327.70884   -185986.15   -185968.15   -1651.2657 
   33600     317.1184   -185985.47   -185968.05   -3245.7388 
   33700    327.83654   -185985.61    -185967.6   -1072.2152 
   33800    327.49905   -185984.97   -185966.98   -4556.1964 
   33900    321.27013   -185984.01   -185966.36    1338.1887 
   34000    331.41841   -185983.96   -185965.75   -1622.9589 
   34100     343.3215   -185984.12   -185965.26   -3738.5593 
   34200    355.50266   -185984.61   -185965.08   -5453.4992 
   34300    346.52309   -185984.52   -185965.49   -6193.9777 
   34400      354.635   -185985.94   -185966.46    3536.4284 
   34500    351.83499   -185986.78   -185967.45    1747.0655 
   34600     315.8822   -185985.24   -185967.89   -128.57383 
   34700    329.66668   -185986.23   -185968.12    2082.7661 
   34800    316.67939   -185985.63   -185968.23    2047.3337 
   34900    320.22129   -185985.72   -185968.13    301.96979 
   35000    337.11276   -185986.38   -185967.86    -5326.865 
   35100    323.94233   -185985.01   -185967.21   -7667.8971 
   35200    332.34946    -185984.6   -185966.35   -4301.8967 
   35300    346.41347   -185984.94   -185965.91   -2281.3973 
   35400    334.42535   -185984.39   -185966.02   -1801.0089 
   35500    332.06816   -185984.49   -185966.25   -1704.2589 
   35600    346.51217   -185985.74   -185966.71    4118.0292 
   35700     330.0222   -185985.39   -185967.26    3845.2122 
   35800    327.43593   -185985.55   -185967.56    693.57202 
   35900    329.80747   -185985.79   -185967.67    656.41326 
   36000    336.89302   -185986.22   -185967.71    -4224.879 
   36100    330.45927   -185985.96    -185967.8   -1096.5131 
   36200    327.98275   -185985.89   -185967.88   -4482.7001 
   36300    316.94749   -185985.45   -185968.04    2317.0419 
   36400    325.60218   -185986.26   -185968.37    2630.0504 
   36500    288.35931   -185984.82   -185968.97    389.83903 
   36600    326.33779   -185987.27   -185969.34   -3571.0577 
   36700    315.60758      -185987   -185969.66   -5837.5018 
   36800    314.56342   -185987.16   -185969.88    -5011.893 
   36900    310.89343    -185986.8   -185969.72   -6409.7836 
   37000    312.14062   -185986.21   -185969.06   -9051.0683 
   37100    314.47867   -185985.38   -185968.11    5278.2167 
   37200    324.54064   -185985.35   -185967.52    3067.1751 
   37300     338.3488   -185985.76   -185967.18    4333.5926 
   37400    339.28395   -185985.88   -185967.24   -982.95093 
   37500    333.85382   -185986.03   -185967.69   -5800.8239 
   37600    323.19175      -185986   -185968.24   -2337.1904 
   37700    328.74794   -185986.55   -185968.49   -2455.7512 
   37800     317.9466   -185986.02   -185968.56    2409.7106 
   37900    336.00446   -185987.05   -185968.59    2367.6731 
   38000    331.36147   -185986.71   -185968.51    -2564.355 
   38100    330.18717   -185986.61   -185968.47   -4457.4821 
   38200    335.02798    -185986.9   -185968.49   -1995.3873 
   38300    320.94511   -185986.21   -185968.58   -5056.8383 
   38400    328.15697   -185986.71   -185968.68   -4359.8543 
   38500    331.47408   -185987.08   -185968.87    4534.5774 
   38600    323.68088   -185986.91   -185969.13    11261.226 
   38700    316.24297   -185986.76   -185969.39    4419.1055 
   38800    308.73879    -185986.6   -185969.64   -5105.0116 
   38900    315.45128   -185986.98   -185969.65   -6029.4731 
   39000    320.50428   -185986.87   -185969.27   -4923.2824 
   39100    341.13166   -185987.15   -185968.41   -3978.3015 
   39200    332.81002   -185986.02   -185967.74   -4022.4966 
   39300    356.84993   -185987.08   -185967.48   -5999.2176 
   39400    329.20604   -185985.64   -185967.56     3867.412 
   39500    317.48659   -185985.25   -185967.81    -107.7708 
   39600    310.20224   -185985.05   -185968.01     1938.068 
   39700    317.73633   -185985.76   -185968.31   -3870.1127 
   39800    325.88878   -185986.42   -185968.51    -11588.66 
   39900    328.64316   -185986.67   -185968.62   -1491.3535 
   40000    343.72113   -185987.45   -185968.57   -2408.7743 
   40100    329.66621   -185986.57   -185968.46   -3224.0397 
   40200    321.40207   -185985.74   -185968.08     426.5996 
   40300    321.03804   -185985.07   -185967.44    704.20599 
   40400    337.67752   -185985.33   -185966.78   -1963.9628 
   40500    349.18322   -185985.64   -185966.46   -9578.4781 
   40600    343.94128   -185985.49    -185966.6   -8971.6252 
   40700    348.15041   -185986.36   -185967.23   -3840.0978 
   40800    325.78214   -185986.18   -185968.28   -506.94914 
   40900    335.41852   -185987.27   -185968.85    1852.7894 
   41000    323.31264   -185986.76      -185969    4813.8537 
   41100    326.94178   -185986.97   -185969.01    -217.8464 
   41200    332.51079   -185987.13   -185968.86    273.33762 
   41300    319.85882   -185986.09   -185968.52     2726.786 
   41400    315.48594   -185985.23   -185967.89   -3422.7663 
   41500    331.75249   -185985.57   -185967.34   -4963.9284 
   41600    340.21201    -185985.9   -185967.21   -6808.7193 
   41700    332.91946   -185985.63   -185967.34    2123.2585 
   41800    316.18454   -185985.16   -185967.79   -6070.8999 
   41900    320.44119   -185986.54   -185968.94   -1549.3538 
   42000    320.37652   -185987.58   -185969.98   -97.610029 
   42100    311.74336   -185987.31   -185970.18    1698.2171 
   42200     331.5216   -185988.15   -185969.94   -3698.0598 
   42300    340.04487   -185988.15   -185969.47   -1576.3404 
   42400    315.60068   -185986.06   -185968.72   -3556.1089 
   42500    340.63363   -185986.63   -185967.92   -9767.7316 
   42600    329.34259    -185985.6   -185967.51   -2670.9879 
   42700    323.57273   -185985.01   -185967.24   -3240.6511 
   42800    340.75639   -185985.74   -185967.02   -2493.6348 
   42900    338.28436   -185985.55   -185966.96    170.02402 
   43000     338.1844   -185985.64   -185967.06   -4330.9859 
   43100    335.79849   -185985.82   -185967.37   -2817.7164 
   43200    328.15467   -185986.05   -185968.02    5095.4267 
   43300    304.90903   -185985.63   -185968.88    2498.8341 
   43400    325.86977   -185987.26   -185969.36   -1761.5371 
   43500    302.59578    -185986.1   -185969.48   -3808.7158 
   43600    303.62444   -185985.61   -185968.93   -10152.865 
   43700    335.39391    -185986.4   -185967.97    -3106.837 
   43800    342.81448   -185986.34   -185967.51    321.49185 
   43900    337.03764   -185985.95   -185967.43    2698.4073 
   44000    342.58592    -185986.3   -185967.48   -6865.3754 
   44100    343.24464   -185986.57   -185967.72   -2555.5561 
   44200    324.37657   -185985.92   -185968.11    4349.1407 
   44300    320.68409   -185986.07   -185968.45   -2673.6912 
   44400    317.00781   -185986.24   -185968.83   -8045.6744 
   44500    325.07762   -185987.23   -185969.37   -3526.3934 
   44600    300.77163   -185986.41   -185969.88    1545.5841 
   44700     314.7534   -185987.26   -185969.97    1766.6122 
   44800    318.83786   -185986.96   -185969.45    1537.1941 
   44900    335.32616   -185986.78   -185968.36   -3004.2019 
   45000    327.94433   -185985.67   -185967.65   -496.98931 
   45100    323.79005   -185985.22   -185967.44    2656.9642 
   45200     331.8678   -185985.46   -185967.23    1922.8057 
   45300    324.99866   -185984.96    -185967.1    728.92708 
   45400    344.04484   -185986.02   -185967.12    853.83061 
   45500    331.52029   -185985.63   -185967.42   -3509.2128 
   45600    324.43406   -185986.02    -185968.2   -1992.5342 
   45700    316.45079    -185986.5   -185969.11   -5531.0929 
   45800    317.39749   -185987.02   -185969.59   -1858.5876 
   45900    322.48144   -185987.34   -185969.62    562.42105 
   46000    315.62702   -185986.53   -185969.19   -315.70005 
   46100    307.85143   -185985.38   -185968.46    568.49224 
   46200    350.83023   -185987.07    -185967.8     2508.906 
   46300    325.19584   -185985.53   -185967.67    8160.6413 
   46400    326.24493   -185985.57   -185967.65    5164.4544 
   46500    307.46191   -185984.51   -185967.62   -600.08873 
   46600    325.11346   -185985.28   -185967.42   -7183.7052 
   46700    339.66464   -185985.65   -185966.99   -10664.556 
   46800    337.31029   -185984.72   -185966.19    -11090.39 
   46900    358.35101   -185985.29   -185965.61   -2869.6319 
   47000    350.23879   -185984.78   -185965.54    3515.4248 
   47100    357.88352   -185985.67   -185966.01   -2395.0261 
   47200    325.86221   -185985.08   -185967.18    212.81072 
   47300    321.21066   -185985.52   -185967.88      4201.13 
   47400    333.19496   -185986.29   -185967.99   -3171.8744 
   47500    319.19854   -185985.49   -185967.96   -8361.4225 
   47600    335.91536   -185986.19   -185967.73   -3760.8877 
   47700    319.04107   -185984.98   -185967.45   -2928.6106 
   47800     349.1361   -185986.37   -185967.19   -4585.8662 
   47900     331.3207   -185985.29   -185967.09   -4044.0252 
   48000    335.61233   -185985.45   -185967.01    2685.1223 
   48100    345.59251   -185986.08   -185967.09    4158.2652 
   48200     329.9009   -185985.34   -185967.22    4615.5991 
   48300    341.23297   -185986.13   -185967.38   -1391.2965 
   48400    328.25266   -185985.63    -185967.6   -1993.4111 
   48500    312.32556    -185985.1   -185967.94   -1553.3759 
   48600    324.40132   -185986.17   -185968.35   -2000.1821 
   48700    309.62753   -185985.74   -185968.73   -5750.7026 
   48800    305.89258   -185985.74   -185968.93   -1466.7201 
   48900    318.23544   -185986.18    -185968.7    472.61757 
   49000    326.75827   -185985.96   -185968.01     1693.393 
   49100    337.50331   -185985.66   -185967.12     -2152.79 
   49200    336.92964      -185985   -185966.49    2911.6198 
   49300    347.67626   -185985.32   -185966.22    1591.3109 
   49400     337.1687   -185984.83   -185966.31    1683.8373 
   49500    335.01445   -185985.19   -185966.78    413.27434 
   49600    337.26356   -185985.84   -185967.31    1792.4698 
   49700     333.8751   -185985.89   -185967.55   -2135.1735 
   49800    329.46175   -185985.72   -185967.62   -5836.0494 
   49900    325.02704   -185985.38   -185967.52   -2349.0281 
   50000    326.53842   -185985.35   -185967.41   -2107.7852 
   50100    323.24884   -185985.05   -185967.29     745.0059 
   50200    339.25129   -185985.77   -185967.14   -3048.0403 
   50300    324.29704   -185984.87   -185967.06   -5280.9225 
   50400    331.79278   -185985.12   -185966.89   -4513.8589 
   50500    319.96913   -185984.03   -185966.45   -1605.9244 
   50600    326.06479   -185983.78   -185965.87   -4937.1384 
   50700    348.03066   -185984.37   -185965.25    -6813.386 
   50800    354.44071   -185984.21   -185964.73   -3647.4113 
   50900    351.58676   -185983.98   -185964.66   -1822.3471 
   51000    334.52505   -185983.34   -185964.96   -287.19085 
   51100    339.94448   -185984.42   -185965.75    1892.6821 
   51200    335.41073   -185985.07   -185966.64   -5422.6261 
   51300    310.36149   -185984.13   -185967.08   -1119.8161 
   51400    329.96478   -185985.18   -185967.05   -3736.9985 
   51500    338.76058   -185985.53   -185966.92   -8548.9647 
   51600    308.95509   -185983.75   -185966.78   -6566.9712 
   51700    336.62203   -185985.05   -185966.56   -6530.0897 
   51800    337.16728   -185985.04   -185966.52   -2486.3494 
   51900    345.40995   -185985.61   -185966.63    2612.5122 
   52000    332.21954   -185985.08   -185966.83   -3486.0041 
   52100    319.42843   -185984.75    -185967.2    1486.0295 
   52200     326.5425   -185985.85   -185967.91    697.06845 
   52300    302.46661   -185985.23   -185968.61   -847.35194 
   52400    313.92459      -185986   -185968.76    227.48933 
   52500    306.82986   -185985.42   -185968.57   -4223.6371 
   52600    307.79196   -185984.68   -185967.77    -6358.996 
   52700    349.05578   -185985.99   -185966.81    -451.6468 
   52800    333.70167   -185984.75   -185966.42   -3724.4713 
   52900     340.1036   -185984.95   -185966.27   -892.18465 
   53000    317.34409   -185983.66   -185966.23   -4365.1515 
   53100    328.51598   -185984.22   -185966.17   -1406.4248 
   53200    328.05156   -185984.32    -185966.3   -3655.2939 
   53300    348.22522   -185985.69   -185966.56   -3273.3953 
   53400    314.38455   -185984.53   -185967.26     5119.904 
   53500    317.13443   -185985.58   -185968.15    284.21152 
   53600    323.70388   -185986.48   -185968.69   -4784.5973 
   53700    321.10331   -185986.43   -185968.79   -4181.3347 
   53800     321.6884   -185986.15   -185968.48   -3796.9067 
   53900    310.43726   -185984.82   -185967.76   -2594.4867 
   54000    330.63221   -185985.26   -185967.09   -467.67909 
   54100    340.46845   -185985.49   -185966.78    -1184.485 
   54200    330.09448   -185984.89   -185966.75    5652.1206 
   54300     342.9044   -185985.63    -185966.8    2769.6756 
   54400    328.36713   -185984.95   -185966.91   -89.937372 
   54500    344.94704   -185986.11   -185967.16   -2385.0111 
   54600    333.67205   -185985.86   -185967.53   -9649.3001 
   54700    312.87813   -185985.15   -185967.96   -7025.2185 
   54800    312.06673   -185985.59   -185968.44   -4433.8299 
   54900    320.37157   -185986.45   -185968.85   -1730.1263 
   55000    313.09059      -185986    -185968.8    3624.1428 
   55100    321.98844   -185985.81   -185968.12    1220.1846 
   55200    335.20231   -185985.56   -185967.15    1268.2879 
   55300    330.30289   -185984.77   -185966.62    -3766.743 
   55400    350.13859   -185985.71   -185966.47   -6291.9632 
   55500     329.3923   -185984.76   -185966.67    2566.3908 
   55600    344.13708   -185985.81    -185966.9   -2855.5488 
   55700    323.11273    -185985.4   -185967.65   -481.03182 
   55800     325.5406   -185986.28    -185968.4    3624.0148 
   55900    313.22244   -185985.88   -185968.67    2034.7679 
   56000    311.98309   -185985.76   -185968.62   -2575.3479 
   56100    321.77417   -185986.15   -185968.47   -1877.4136 
   56200    318.40716   -185985.81   -185968.32   -1422.9443 
   56300    329.88738   -185986.14   -185968.01   -3791.5902 
   56400    318.84047   -185985.21    -185967.7   -662.99283 
   56500    317.14903   -185984.68   -185967.26     2052.994 
   56600    331.21704   -185984.89   -185966.69    3120.6742 
   56700    345.57284   -185985.11   -185966.12     3378.997 
   56800    334.81917   -185984.23   -185965.83   -2580.2449 
   56900    342.02163   -185984.56   -185965.77   -2563.8474 
   57000    326.86392   -185984.08   -185966.13   -4700.9698 
   57100    323.71788   -185984.93   -185967.15   -2286.5128 
   57200    301.89771   -185984.93   -185968.34   -4533.9544 
   57300    329.39909   -185986.73   -185968.63   -4875.9793 
   57400      303.901   -185985.24   -185968.54   -1074.7726 
   57500    308.64267   -185985.03   -185968.08    1676.8733 
   57600    324.22414   -185985.31    -185967.5   -435.43728 
   57700    328.28766   -185984.94   -185966.91   -1645.8046 
   57800    316.50008   -185983.84   -185966.45    635.18577 
   57900    354.41213   -185985.65   -185966.18    3295.3924 
   58000    329.31424   -185984.42   -185966.33   -5.7159893 
   58100    332.76045   -185985.02   -185966.74   -5024.3637 
   58200    318.73135   -185984.86   -185967.35   -3011.0173 
   58300    311.89913    -185985.2   -185968.07   -4662.2919 
   58400    310.48808   -185986.02   -185968.97    -6118.495 
   58500    311.97211   -185986.84    -185969.7   -5427.4859 
   58600    303.82557   -185986.53   -185969.84    1770.5144 
   58700    312.26963   -185986.38   -185969.22   -2050.5449 
   58800     325.9771   -185985.83   -185967.92    3095.7994 
   58900    339.78384   -185986.09   -185967.42   -80.395072 
   59000    318.04859    -185984.7   -185967.23   -4234.2956 
   59100    349.68412   -185986.18   -185966.97    5128.2585 
   59200    331.31947   -185984.98   -185966.78   -1452.6148 
   59300    334.11036    -185984.9   -185966.54   -1254.5453 
   59400    341.04447   -185985.07   -185966.33   -827.13634 
   59500    356.17266   -185985.85   -185966.28    7100.3819 
   59600    327.84623   -185984.63   -185966.61   -832.56786 
   59700    319.28855   -185984.78   -185967.24   -4443.1173 
   59800    323.75859   -185985.66   -185967.87    -4695.469 
   59900    333.69829   -185986.63    -185968.3   -415.24787 
   60000    329.38278   -185986.63   -185968.54    1959.2173 
   60100    304.46003   -185985.34   -185968.61   -1765.7671 
   60200    313.53697   -185985.27   -185968.05    2971.1835 
   60300    326.70895   -185984.77   -185966.82    4120.4046 
   60400    323.15077   -185983.76   -185966.01   -369.80926 
   60500    329.26823   -185983.67   -185965.59    977.08554 
   60600    318.54992   -185982.92   -185965.42   -3460.9308 
   60700    330.06241   -185983.46   -185965.33   -3800.4956 
   60800    331.90787   -185983.87   -185965.64   -26.404821 
   60900    339.89668   -185984.85   -185966.18    2655.3708 
   61000    316.13187   -185984.37      -185967    3126.2736 
   61100    306.91507   -185984.43   -185967.57    2854.4334 
   61200    326.71275   -185985.74   -185967.79    6090.4635 
   61300    331.78271   -185985.99   -185967.76   -4536.7292 
   61400    334.40076   -185985.84   -185967.47   -8738.6557 
   61500    325.56662   -185984.62   -185966.73   -6614.4093 
   61600    359.03036   -185984.84   -185965.12   -2502.4142 
   61700    355.72589   -185984.15   -185964.61    2721.2529 
   61800    356.14594   -185984.41   -185964.85    3221.4743 
   61900    349.90741   -185984.82    -185965.6    5963.4595 
   62000    347.37064   -185985.57   -185966.48    1999.3284 
   62100    333.00723    -185985.4    -185967.1    6753.0965 
   62200    312.41023   -185984.69   -185967.53    1085.4745 
   62300    322.09892    -185985.4    -185967.7    3104.3527 
   62400    328.66012    -185985.7   -185967.65    657.84102 
   62500    334.79701   -185985.78   -185967.39    3058.0225 
   62600    339.21505   -185985.66   -185967.02    1604.3329 
   62700    353.74712   -185985.83    -185966.4   -5793.4224 
   62800     349.0929   -185984.87   -185965.69   -8056.0418 
   62900    345.20577   -185984.21   -185965.25    4416.6652 
   63000    352.76142   -185984.57   -185965.19    2238.8228 
   63100     340.8453   -185984.46   -185965.73    3739.2663 
   63200    336.53398   -185985.38   -185966.89    4103.8502 
   63300    323.27439   -185985.54   -185967.78     1179.742 
   63400    315.85723   -185985.39   -185968.04   -654.79019 
   63500     315.4469    -185985.4   -185968.07   -4600.1688 
   63600    326.80753   -185985.85   -185967.89   -1633.5639 
   63700    321.66482   -185985.03   -185967.35   -1762.2715 
   63800    328.58529    -185984.7   -185966.65   -2177.6671 
   63900    352.13336   -185985.57   -185966.22   -3165.4024 
   64000    326.24792   -185984.04   -185966.12    941.69463 
   64100    326.24902    -185984.1   -185966.18    2951.9972 
   64200    338.51895    -185985.3   -185966.71    5243.6552 
   64300    322.27766   -185985.82   -185968.11    2276.4741 
   64400    313.09558   -185986.18   -185968.98   -972.78272 
   64500    316.47367   -185986.46   -185969.07   -3656.3441 
   64600    321.23426   -185986.41   -185968.76   -7759.6543 
   64700    333.55477   -185986.48   -185968.15   -10440.215 
   64800    349.45672   -185986.77   -185967.58   -4867.1725 
   64900    343.45921   -185986.08   -185967.21   -5419.5328 
   65000     328.0219   -185985.27   -185967.25    5416.8627 
   65100    347.44141   -185986.56   -185967.48    7780.7237 
   65200    315.44772   -185985.28   -185967.95    10011.419 
   65300    308.61719   -185985.39   -185968.44    1280.9271 
   65400      310.538   -185985.99   -185968.93   -3416.1862 
   65500    319.60507   -185986.75   -185969.19    461.86241 
   65600    321.94969   -185986.88    -185969.2   -5459.6634 
   65700    329.08351   -185986.96   -185968.88   -5312.7939 
   65800    321.12937   -185985.85    -185968.2   -1827.8069 
   65900    345.66605   -185986.32   -185967.33    8332.6943 
   66000    353.86102   -185986.18   -185966.74    1250.5182 
   66100    333.79306   -185984.96   -185966.62    140.21505 
   66200    349.59042    -185985.8   -185966.59    3735.5188 
   66300    340.83398   -185985.56   -185966.83    1558.6001 
   66400    340.14076   -185985.97   -185967.28   -2879.3351 
   66500    320.65272   -185985.71   -185968.09   -1482.7298 
   66600    301.05388   -185985.61   -185969.07   -2896.4617 
   66700    304.53952   -185986.33    -185969.6    1383.3781 
   66800    321.85915   -185987.25   -185969.57   -60.323161 
   66900    332.34846   -185987.51   -185969.26   -3170.3032 
   67000    300.53192   -185985.38   -185968.87   -4486.2229 
   67100    311.82477   -185985.49   -185968.36   -652.86171 
   67200    322.98884   -185985.54    -185967.8   -3132.2185 
   67300    322.27838   -185985.07   -185967.36   -2320.2692 
   67400    320.40803   -185984.66   -185967.06   -1615.0088 
   67500    346.04889   -185985.82   -185966.81    1103.4452 
   67600    337.18997   -185985.15   -185966.63    3716.2601 
   67700    336.17817   -185984.98   -185966.51   -2459.1446 
   67800    323.90349   -185984.14   -185966.34   -5869.8609 
   67900    330.17701   -185984.03   -185965.89   -3525.8299 
   68000    349.95333   -185984.54   -185965.31   -3277.4128 
   68100     329.2451   -185983.17   -185965.09   -6661.9665 
   68200    333.79499    -185983.5   -185965.16   -2333.0292 
   68300    350.00336   -185984.69   -185965.47   -2003.4227 
   68400      325.122   -185984.04   -185966.18   -791.27096 
   68500    308.65291   -185983.91   -185966.96   -1968.8736 
   68600    307.74061    -185984.3    -185967.4   -3793.4687 
   68700    317.45601   -185984.92   -185967.48   -1386.5874 
   68800    314.13455   -185984.62   -185967.36    -6869.852 
   68900    325.69999    -185984.7    -185966.8   -2576.4762 
   69000     350.1106   -185985.24      -185966   -3444.8266 
   69100    329.86377   -185983.59   -185965.47   -2193.2815 
   69200    356.03191   -185984.28   -185964.72   -8787.0152 
   69300    348.45982   -185982.64    -185963.5   -1886.5437 
   69400    358.99672   -185982.59   -185962.87    -4289.614 
   69500    372.54406   -185983.65   -185963.18   -4206.1422 
   69600    347.83834    -185983.3   -185964.19   -4965.3669 
   69700     355.3261   -185984.54   -185965.02   -1657.9909 
   69800    321.73704   -185983.34   -185965.67   -3010.8271 
   69900    339.96318   -185984.68      -185966   -3024.6547 
   70000    330.49319   -185984.59   -185966.44   -3212.1992 
   70100    329.58242   -185984.87   -185966.76   -6020.1448 
   70200    324.23681   -185984.91   -185967.09   -1220.0511 
   70300     311.2977    -185984.5    -185967.4   -1481.2807 
   70400     310.2665   -185984.82   -185967.77    820.83017 
   70500    321.21918   -185985.64   -185967.99     3086.432 
   70600    308.62193    -185984.9   -185967.95   -2693.8198 
   70700    336.51009   -185985.82   -185967.34   -4350.4194 
   70800    331.09902    -185984.6   -185966.41   -4029.4969 
   70900    327.35247   -185983.65   -185965.67   -3721.7541 
   71000    343.36896    -185984.1   -185965.24   -7210.0228 
   71100    341.34855   -185983.97   -185965.21   -4675.8177 
   71200    326.42435   -185983.38   -185965.45   -5340.9551 
   71300    323.29717   -185983.79   -185966.03   -1629.9598 
   71400    304.56989   -185983.41   -185966.68   -84.541136 
   71500    335.11072   -185985.59   -185967.18   -3712.0643 
   71600    303.92391   -185984.29   -185967.59    1676.7367 
   71700     312.8248   -185985.14   -185967.95   -4714.1146 
   71800    322.70047   -185985.97   -185968.24   -10390.764 
   71900    307.65349   -185985.32   -185968.42   -202.57024 
   72000    320.99794   -185985.75   -185968.11   -1489.2766 
   72100    321.24724   -185985.07   -185967.42   -700.40434 
   72200    332.61537   -185984.98    -185966.7    138.69782 
   72300    342.06484   -185984.91   -185966.12    2945.1325 
   72400    337.98565   -185984.28   -185965.72     2597.294 
   72500    341.58199   -185984.33   -185965.56   -4878.1648 
   72600    317.00199   -185982.94   -185965.53    -4152.164 
   72700    352.40826   -185984.98   -185965.62   -817.29017 
   72800    331.83464   -185984.53    -185966.3     1367.471 
   72900     326.8494   -185985.36    -185967.4    4388.3428 
   73000    322.40054    -185985.8   -185968.09    3803.9505 
   73100    319.80527   -185985.91   -185968.35   -27.011939 
   73200    307.59101    -185985.2    -185968.3    1942.6764 
   73300    332.80459    -185986.3   -185968.02   -1583.8833 
   73400    325.70885   -185985.56   -185967.67   -664.04824 
   73500    342.90408    -185986.1   -185967.26   -5139.7794 
   73600     333.2817    -185984.8   -185966.49   -1369.6317 
   73700     334.7093   -185983.78   -185965.39    -3848.982 
   73800    359.94053    -185984.6   -185964.83    1963.9953 
   73900    347.74173    -185984.1      -185965       3593.9 
   74000    336.79246   -185984.04   -185965.54    -2457.856 
   74100    339.53878   -185984.86   -185966.21    -5399.152 
   74200     327.4472   -185984.73   -185966.74   -2584.0799 
   74300    319.34826    -185984.6   -185967.06   -1557.3336 
   74400    305.37378   -185984.11   -185967.33   -2155.3743 
   74500    336.40654   -185985.89   -185967.41   -2013.4648 
   74600    342.25187   -185986.26   -185967.46    1824.9306 
   74700    328.08638   -185985.55   -185967.53    2590.9877 
   74800    326.45481   -185985.53   -185967.59    633.44058 
   74900    350.97607   -185986.96   -185967.67    1927.7823 
   75000    333.46263   -185986.32      -185968   -611.46011 
   75100    320.10716   -185985.92   -185968.33     1376.733 
   75200    303.96005   -185985.11   -185968.41   -1651.8054 
   75300    314.62537   -185985.31   -185968.02   -2758.8833 
   75400    307.02677   -185984.05   -185967.19   -5044.5125 
   75500    343.08607   -185985.19   -185966.34   -4098.9143 
   75600    324.42326   -185983.91   -185966.09    1368.2256 
   75700    330.29802   -185984.29   -185966.14    1165.0158 
   75800    333.81236   -185984.71   -185966.37   -1323.5683 
   75900    340.05392   -185985.35   -185966.67    1471.2601 
   76000    338.17336   -185985.71   -185967.13   -919.76314 
   76100    332.31279   -185986.25      -185968   -6279.0386 
   76200    317.56461   -185986.44   -185968.99    -6197.381 
   76300    323.03167   -185987.17   -185969.43   -3724.1816 
   76400    305.68511   -185986.11   -185969.32   -2340.9817 
   76500    307.28295   -185985.79   -185968.91    -1368.687 
   76600    315.34262   -185985.75   -185968.42    4073.4463 
   76700    339.81473   -185986.59   -185967.92    2893.8572 
   76800    300.79993   -185983.96   -185967.44   -40.128308 
   76900    334.48299   -185985.22   -185966.84   -1137.0174 
   77000    330.49371   -185984.54   -185966.38   -1617.0111 
   77100    344.98848   -185984.94   -185965.99   -576.61392 
   77200    343.48791   -185984.77    -185965.9   -4962.8239 
   77300    315.08167   -185983.31      -185966   -3395.9027 
   77400     342.3497   -185984.92   -185966.12   -508.38524 
   77500    326.48812   -185984.43   -185966.49   -203.21393 
   77600    324.55286   -185985.05   -185967.22    1143.7786 
   77700    305.95338    -185985.2   -185968.39    3244.7368 
   77800    312.88586   -185986.21   -185969.02    2157.7189 
   77900     304.2951   -185985.62    -185968.9    247.15834 
   78000    321.55476   -185986.08   -185968.41   -4296.6572 
   78100    331.91327   -185986.11   -185967.88   -3793.9114 
   78200    323.99202   -185985.13   -185967.33   -9262.6143 
   78300    327.12478   -185984.85   -185966.88   -4023.7255 
   78400    312.79494   -185983.72   -185966.54   -3110.6451 
   78500    336.85007   -185984.66   -185966.16   -451.93318 
   78600    333.68327   -185984.24   -185965.91    1214.6296 
   78700    332.65304   -185984.08    -185965.8    1587.0599 
   78800    337.08653   -185984.26   -185965.74   -454.00311 
   78900      333.458   -185983.91   -185965.59    -721.9567 
   79000    341.51519   -185984.33   -185965.57   -1084.7396 
   79100    321.27699   -185983.57   -185965.92   -2172.3952 
   79200    316.55548   -185983.63   -185966.24   -5636.0037 
   79300    322.40825   -185984.27   -185966.56   -3069.7829 
   79400    325.41826   -185984.84   -185966.96   -1778.7038 
   79500    325.94015   -185985.21    -185967.3   -6236.5774 
   79600    323.07085   -185985.46   -185967.71   -6206.0292 
   79700     325.3978   -185986.05   -185968.18    -7975.817 
   79800    327.99783   -185986.59   -185968.57   -8554.3138 
   79900    303.91422   -185985.47   -185968.78   -5835.1105 
   80000    328.23738   -185986.32   -185968.29   -628.73145 
   80100    335.48068   -185985.57   -185967.14    -294.3203 
   80200    342.11023    -185985.2   -185966.41   -1143.1878 
   80300    334.22143   -185984.44   -185966.08    1370.9908 
   80400    332.15146   -185984.31   -185966.06    2002.4324 
   80500    334.91737   -185984.59   -185966.19   -6180.2266 
   80600    339.92576   -185985.24   -185966.57   -4492.2717 
   80700    338.07496   -185985.94   -185967.36   -3579.9825 
   80800    316.40944   -185985.41   -185968.03   -444.76676 
   80900    324.97274   -185986.09   -185968.23    -633.4147 
   81000    315.06832   -185985.44   -185968.14     71.40483 
   81100    322.69324   -185985.39   -185967.66   -2446.7141 
   81200    349.70655   -185986.13   -185966.92   -3857.6461 
   81300    324.14612      -185984   -185966.19   -4338.2605 
   81400    349.74367   -185985.14   -185965.93   -3838.6806 
   81500    319.25317   -185983.57   -185966.03   -2175.1925 
   81600    315.37338   -185983.58   -185966.25    78.455551 
   81700    323.73897    -185984.2   -185966.42   -3887.1284 
   81800    336.89827      -185985   -185966.49   -3139.5654 
   81900    320.37563   -185984.22   -185966.62    304.51831 
   82000    355.92156    -185986.4   -185966.85   -2875.7481 
   82100    327.92173   -185985.27   -185967.26    -2823.831 
   82200    323.44961    -185985.4   -185967.63   -1297.4195 
   82300    317.39812   -185985.44   -185968.01   -633.88701 
   82400    325.63544   -185986.15   -185968.26    835.54793 
   82500    324.11209   -185986.15   -185968.34   -3442.1184 
   82600    312.01222   -185985.23   -185968.09   -6330.1693 
   82700    328.75709   -185985.31   -185967.25   -4767.9251 
   82800    330.07705   -185984.47   -185966.34   -3458.2553 
   82900    335.61412   -185984.21   -185965.77    2209.2391 
   83000     334.0288   -185983.98   -185965.63   -1358.9943 
   83100    335.42356   -185984.24   -185965.82    780.85882 
   83200    326.37417   -185984.22   -185966.29   -3850.7532 
   83300     344.4729    -185985.9   -185966.97   -4565.9756 
   83400    328.37426   -185985.73   -185967.69   -3828.0244 
   83500    332.37594   -185986.34   -185968.09   -2396.0799 
   83600    313.49184   -185985.45   -185968.23    1608.7829 
   83700    319.33423    -185985.6   -185968.06   -2228.3735 
   83800    319.39397   -185985.29   -185967.75    2638.0727 
   83900      333.672   -185985.66   -185967.33    -4808.533 
   84000    304.82294   -185983.76   -185967.02   -6372.7176 
   84100    330.21451   -185984.86   -185966.72   -7219.0442 
   84200    343.60439   -185985.34   -185966.46   -6406.0694 
   84300    329.01915   -185984.36   -185966.28   -2244.7677 
   84400     329.9904   -185984.03    -185965.9    -2181.079 
   84500    335.63889   -185983.41   -185964.97    -557.9805 
   84600    352.24994   -185983.39   -185964.04    2231.5754 
   84700    368.41987   -185984.05   -185963.81    9604.3759 
   84800    348.63074   -185983.51   -185964.36    4691.1936 
   84900    346.32483   -185984.32   -185965.29    1110.5884 
   85000    334.30191   -185984.43   -185966.06   -3188.5874 
   85100    342.88753   -185985.31   -185966.48    -12547.65 
   85200    327.03568   -185984.84   -185966.87   -7832.2684 
   85300    341.95843   -185986.03   -185967.25    -6364.951 
   85400    323.19927   -185985.47   -185967.72    1811.3653 
   85500    326.05346   -185985.99   -185968.08   -687.39637 
   85600    324.75989   -185986.06   -185968.22    1845.8791 
   85700    305.50514   -185984.95   -185968.17   -1376.9808 
   85800    321.68226   -185985.19   -185967.52   -771.39314 
   85900    337.32044   -185984.81   -185966.28   -2906.2449 
   86000    343.44447   -185984.45   -185965.58    -1255.237 
   86100    347.66259   -185984.51   -185965.41   -6096.5736 
   86200    355.19095   -185985.14   -185965.63    994.32306 
   86300    334.59798   -185984.75   -185966.37    1303.1429 
   86400    323.87579   -185985.03   -185967.24   -1024.8969 
   86500     306.4068   -185984.43    -185967.6    103.73848 
   86600    321.87138    -185985.3   -185967.62   -3504.8764 
   86700    335.38339   -185985.87   -185967.45   -5388.6256 
   86800    336.67667   -185985.57   -185967.07   -3887.8218 
   86900    353.72372   -185986.13    -185966.7   -1755.8259 
   87000    329.05864   -185984.44   -185966.36   -324.19911 
   87100    336.64328   -185984.43   -185965.93    2833.7349 
   87200    342.13044   -185983.93   -185965.13     2746.376 
   87300    368.97148   -185984.59   -185964.32   -1134.3098 
   87400    347.69218   -185983.29   -185964.19    632.04175 
   87500    351.55753   -185983.98   -185964.67   -6664.5899 
   87600    335.96826   -185984.16   -185965.71    -5737.303 
   87700    333.67651   -185984.72   -185966.39   -909.71819 
   87800    328.34005   -185984.74    -185966.7   -3070.4512 
   87900    324.84821   -185984.66   -185966.82   -4498.4947 
   88000    342.48033   -185985.59   -185966.78   -2300.2529 
   88100     337.9381   -185985.26   -185966.69    637.75116 
   88200    343.22056   -185985.46   -185966.61   -5300.9691 
   88300    333.09946   -185984.99   -185966.69    1005.0348 
   88400    339.96539   -185985.73   -185967.06    95.125688 
   88500     323.0789   -185985.46   -185967.71    894.40971 
   88600    302.76475   -185985.13    -185968.5    1668.5222 
   88700    336.01472   -185987.36    -185968.9    2588.7288 
   88800    310.01431   -185986.19   -185969.16   -1049.7829 
   88900    323.24063   -185986.75      -185969   -3054.9024 
   89000    320.24891   -185985.87   -185968.28   -967.82765 
   89100    326.84495   -185985.18   -185967.22   -3784.2649 
   89200     339.3207   -185985.35   -185966.71    -2564.722 
   89300    335.70518   -185985.03   -185966.59   -3040.9914 
   89400    360.09854   -185986.42   -185966.64   -1995.6323 
   89500    325.75176   -185985.01   -185967.12   -1075.8629 
   89600    330.95621   -185985.86   -185967.68   -3262.1801 
   89700    310.44987   -185985.26   -185968.21    576.80825 
   89800    342.88507   -185987.36   -185968.52   -5079.5566 
   89900    317.70228    -185986.2   -185968.74   -117.87464 
   90000    317.27793   -185986.11   -185968.68    991.45212 
   90100    332.31126   -185986.19   -185967.93    -960.9706 
   90200     353.4473   -185985.98   -185966.57   -3369.9551 
   90300    346.86409   -185985.12   -185966.06   -4759.4459 
   90400    343.81654   -185985.11   -185966.22    -2483.379 
   90500    341.18055    -185985.5   -185966.76   -553.21838 
   90600    326.28955   -185985.43   -185967.51   -2837.5654 
   90700    316.00179   -185985.36      -185968   -1294.6077 
   90800    320.27719   -185985.76   -185968.16   -374.86281 
   90900    321.05651   -185985.82   -185968.18   -3152.2197 
   91000    343.66152   -185987.16   -185968.28   -4586.7835 
   91100    318.33256    -185986.1   -185968.61    -4371.758 
   91200    327.34163   -185987.11   -185969.13   -6994.5949 
   91300    303.97641   -185986.87   -185970.18   -2371.2244 
   91400    313.43707   -185988.07   -185970.85   -8103.5506 
   91500    310.16301   -185987.83   -185970.79   -771.27924 
   91600     303.3493    -185986.8   -185970.14    1076.1499 
   91700    311.89549   -185986.48   -185969.35   -1848.1532 
   91800    326.20835   -185986.75   -185968.83   -504.81411 
   91900    330.18582   -185986.56   -185968.42   -1085.0732 
   92000    329.73718   -185986.09   -185967.97    1041.7903 
   92100    332.70693   -185985.84   -185967.56   -1619.1066 
   92200    313.61938   -185984.43   -185967.21    1266.8369 
   92300    341.92135   -185985.59   -185966.81    876.70443 
   92400    337.89035   -185985.28   -185966.72   -2493.2092 
   92500     342.4022   -185985.77   -185966.96   -1978.7182 
   92600    326.16928   -185985.79   -185967.87   -11327.193 
   92700    321.22676    -185986.5   -185968.85   -1582.7624 
   92800    318.16873   -185986.76   -185969.28   -6304.2872 
   92900    308.80169   -185986.26    -185969.3   -2024.9919 
   93000    321.81494   -185986.72   -185969.04    1024.7996 
   93100     308.2596   -185985.65   -185968.71    2370.4851 
   93200    342.62265    -185986.9   -185968.08   -3626.6136 
   93300    331.53541    -185985.6   -185967.39    -3959.018 
   93400    329.33579   -185984.86   -185966.76   -6219.8537 
   93500    333.98209   -185984.97   -185966.62   -5517.5107 
   93600    354.58218   -185986.12   -185966.64   -6789.2855 
   93700    349.80238   -185986.07   -185966.85   -6729.4691 
   93800    335.73888   -185985.73   -185967.28   -3776.7242 
   93900      338.399   -185986.41   -185967.82    2253.8452 
   94000     315.0863   -185985.71    -185968.4    4431.2362 
   94100    325.08113   -185986.64   -185968.79    4127.6575 
   94200    323.69864   -185986.82   -185969.04   -795.97733 
   94300    317.98998   -185986.56   -185969.09   -6748.0076 
   94400    337.61369   -185987.42   -185968.87   -541.14745 
   94500    345.58567   -185987.01   -185968.03    -2378.375 
   94600    341.29598    -185985.7   -185966.95   -8342.2198 
   94700    351.44801   -185985.66   -185966.35   -5821.5503 
   94800    351.99557   -185985.56   -185966.22   -2226.1762 
   94900    336.46594   -185985.01   -185966.53     1532.501 
   95000    334.85376   -185985.48   -185967.08   -4550.9249 
   95100    312.88373   -185984.88   -185967.69    -5028.363 
   95200    323.21657   -185985.99   -185968.23   -7969.5599 
   95300    328.78437   -185986.62   -185968.56   -10749.403 
   95400    310.97612   -185985.81   -185968.72   -4975.4965 
   95500    342.50361   -185987.24   -185968.42   -5586.1972 
   95600    331.42692   -185985.63   -185967.43    3138.2916 
   95700    341.85224   -185984.86   -185966.08    4266.1496 
   95800    341.75652   -185984.45   -185965.67    7069.9357 
   95900    344.95286   -185984.84   -185965.89    -1870.703 
   96000    349.38179   -185985.66   -185966.47   -964.67598 
   96100    330.85061   -185985.47    -185967.3   -2823.1752 
   96200    322.73821   -185985.62   -185967.89   -4124.9695 
   96300     331.0899    -185986.3   -185968.11   -5773.8109 
   96400    312.05868   -185985.29   -185968.14   -5942.7932 
   96500    320.96832   -185985.65   -185968.02   -3090.4592 
   96600    331.61647   -185986.01   -185967.79    4278.9755 
   96700    353.20357   -185987.08   -185967.67   -348.65047 
   96800    347.19507    -185986.6   -185967.52   -332.85552 
   96900    334.73383   -185985.75   -185967.36    1278.4512 
   97000    337.46079   -185985.82   -185967.28   -1375.0553 
   97100    347.28027   -185986.49   -185967.42   -1270.5738 
   97200     327.1616    -185985.6   -185967.63   -9207.3939 
   97300    328.18001   -185985.96   -185967.94    -6504.159 
   97400    320.86645   -185986.04   -185968.41   -1742.4634 
   97500    315.95993   -185986.17   -185968.81   -2514.6427 
   97600    314.46888   -185986.33   -185969.05   -3943.4708 
   97700    336.56411   -185987.58   -185969.09   -1197.6244 
   97800    308.24435   -185985.92   -185968.98   -2849.4513 
   97900    346.07195    -185987.4   -185968.39   -4266.2212 
   98000    324.20017   -185985.45   -185967.64     -2824.67 
   98100      350.277   -185986.19   -185966.95   -3818.4709 
   98200    322.26398   -185984.35   -185966.65   -1901.9125 
   98300    330.30542   -185984.66   -185966.52    -2710.651 
   98400    330.25511   -185984.67   -185966.53   -3873.5245 
   98500    314.07977   -185984.09   -185966.83    3233.8544 
   98600    330.90748   -185985.74   -185967.56   -4846.4687 
   98700    323.80781   -185986.25   -185968.46   -7444.2821 
   98800    325.64772    -185986.9   -185969.02   -1991.9047 
   98900    296.42077   -185985.55   -185969.27   -777.77126 
   99000     309.1464   -185986.06   -185969.07   -3021.7683 
   99100    335.90826   -185986.95    -185968.5   -3227.2037 
   99200    324.38207   -185985.64   -185967.82   -2854.1359 
   99300    336.50212   -185985.65   -185967.16   -2410.5183 
   99400    335.58252   -185985.08   -185966.65   -831.51429 
   99500    334.01464   -185984.74   -185966.39   -6075.8583 
   99600    343.65896    -185985.3   -185966.42   -3071.2971 
   99700    355.59211   -185986.18   -185966.65   -506.81868 
   99800    342.05085   -185985.94   -185967.15   -2628.8685 
   99900    319.13063    -185985.2   -185967.67    -1016.159 
  100000    341.63726   -185986.76   -185967.99   -1873.0381 
  100100    340.95486   -185986.85   -185968.12   -2803.0035 
  100200    322.66902   -185985.88   -185968.16   -426.63373 
  100300    337.32157    -185986.6   -185968.07    169.18534 
  100400    333.65949   -185986.52   -185968.19    5940.1438 
  100500    312.23004   -185985.74   -185968.59    2686.0197 
  100600    317.23788   -185986.36   -185968.93   -3688.4574 
  100700    307.42034   -185985.97   -185969.09   -3636.4424 
  100800    305.96758   -185985.89   -185969.08   -5758.3927 
  100900    320.03174   -185986.17   -185968.58    -5317.646 
  101000    327.96298   -185985.75   -185967.74   -6540.7473 
  101100    338.24161   -185985.57   -185966.99    244.19671 
  101200    351.28914   -185985.91   -185966.61    2137.6674 
  101300    351.11414   -185985.91   -185966.62    6052.4482 
  101400    335.73855   -185985.33   -185966.88    2735.1991 
  101500    329.36755   -185985.36   -185967.26    3492.8308 
  101600    326.64591   -185985.72   -185967.77    1598.4132 
  101700    320.91005   -185985.98   -185968.35   -9866.7415 
  101800    319.62971    -185986.4   -185968.84   -5466.4983 
  101900    297.38171   -185985.82   -185969.49   -3553.7511 
  102000    307.77465   -185987.26   -185970.35   -4054.7551 
  102100    290.52139   -185986.72   -185970.76   -441.58114 
  102200    304.11859   -185987.16   -185970.45    4239.5643 
  102300    328.94037   -185987.56   -185969.49    4786.8799 
  102400    326.60266   -185986.64    -185968.7    741.51849 
  102500    330.04078    -185986.4   -185968.27   -3383.0889 
  102600    333.28325   -185986.29   -185967.99   -642.66068 
  102700    325.12693   -185985.47   -185967.61   -3014.9214 
  102800     350.7058   -185986.35   -185967.08   -3330.9468 
  102900    352.08188   -185986.12   -185966.77    3190.1058 
  103000    339.87872   -185985.45   -185966.78    1930.1348 
  103100    348.97596    -185986.5   -185967.33    3030.2301 
  103200    307.96648   -185985.36   -185968.45   -6578.2513 
  103300    299.90977   -185985.62   -185969.14   -4706.1699 
  103400    303.49559   -185985.85   -185969.18   -8082.0937 
  103500    298.92395   -185985.27   -185968.85   -4358.3453 
  103600    323.23583   -185986.09   -185968.33   -1768.1572 
  103700    336.28341   -185986.36   -185967.89   -3856.0122 
  103800    332.24428   -185985.77   -185967.52    6044.3518 
  103900    336.29813   -185985.78    -185967.3      8082.01 
  104000    342.82088   -185986.15   -185967.32    1021.8694 
  104100     335.7605   -185986.01   -185967.57   -1033.7471 
  104200    329.16333    -185986.2   -185968.11    -5818.638 
  104300    320.03058   -185986.77   -185969.19   -2637.9902 
  104400    306.02621    -185986.9   -185970.09   -4018.7427 
  104500    319.84149   -185987.74   -185970.17   -4647.1943 
  104600    323.92342   -185987.68   -185969.89    2735.9294 
  104700    317.25783   -185986.84   -185969.41    3447.6871 
  104800    335.06891   -185987.19   -185968.78    881.08846 
  104900    321.83438   -185985.99   -185968.31   -2090.6164 
  105000    332.18228    -185986.2   -185967.95    -1715.037 
  105100    343.49547   -185986.63   -185967.76    -631.8075 
  105200    342.31279   -185986.66   -185967.86   -8324.0836 
  105300    318.84384   -185985.59   -185968.07   -4591.9429 
  105400    329.78928   -185986.44   -185968.32   -2333.5623 
  105500    329.73986   -185987.03   -185968.91    3228.9377 
  105600    323.01202   -185987.62   -185969.88   -1042.6929 
  105700    311.53408   -185987.79   -185970.67   -119.24445 
  105800    302.86648   -185987.48   -185970.84    1044.6585 
  105900    313.66252   -185987.63    -185970.4   -582.87367 
  106000    299.17879   -185986.22   -185969.79   -2447.5252 
  106100     299.6528    -185985.8   -185969.34   -4404.2192 
  106200    316.16393   -185986.41   -185969.04   -2581.9654 
  106300    330.58711   -185986.81   -185968.65    908.47736 
  106400    322.61868   -185986.04   -185968.32     5023.861 
  106500    342.06909   -185986.84   -185968.05   -110.12038 
  106600    319.38686   -185985.47   -185967.93    3765.3681 
  106700    316.66202   -185985.12   -185967.73    4585.0742 
  106800    338.06232   -185985.86   -185967.29     194.4464 
  106900    344.07817   -185985.64   -185966.73    1234.2214 
  107000    345.47781   -185985.31   -185966.33     2432.868 
  107100    348.35578   -185985.54    -185966.4     1631.929 
  107200      332.466   -185985.46    -185967.2   -5458.1254 
  107300    333.44315   -185986.57   -185968.25   -1224.4064 
  107400    315.75605   -185986.19   -185968.85   -1449.4041 
  107500    311.11432   -185986.17   -185969.08    620.90739 
  107600    320.50627   -185986.65   -185969.05    1009.8191 
  107700    311.84882   -185985.89   -185968.76    2018.6069 
  107800    335.08336   -185986.59   -185968.18    5066.0119 
  107900    327.46003   -185985.55   -185967.56    3974.1401 
  108000    335.25045   -185985.57   -185967.15    2499.6205 
  108100    349.68131   -185986.23   -185967.02   -1693.4629 
  108200    329.99203   -185985.17   -185967.04   -3329.1572 
  108300    347.89735   -185986.65   -185967.54   -1060.3576 
  108400    315.85395   -185985.86   -185968.51   -6429.4494 
  108500    323.73129   -185986.92   -185969.14   -1368.6829 
  108600    307.34981   -185986.27   -185969.39   -2572.0689 
  108700    320.14785   -185986.95   -185969.36     482.2984 
  108800    332.01141   -185987.32   -185969.08   -1029.5692 
  108900    331.24808   -185986.69    -185968.5   -891.10975 
  109000     344.8751   -185986.71   -185967.76    710.61349 
  109100    331.38604   -185985.56   -185967.35    3023.7967 
  109200    336.04478   -185985.65   -185967.19    4961.6903 
  109300    343.36764   -185986.17   -185967.31    5085.1334 
  109400    335.73942   -185986.49   -185968.04     626.2098 
  109500    317.02033   -185986.76   -185969.34   -253.93782 
  109600    324.69192   -185987.82   -185969.99   -1023.4133 
  109700    305.47334   -185986.81   -185970.03    2634.2554 
  109800    324.23964    -185987.5   -185969.69   -2013.2259 
  109900    322.92244   -185986.92   -185969.18    1897.1526 
  110000    336.39062   -185986.99   -185968.51    1385.1302 
  110100    336.30995    -185986.5   -185968.02   -2559.9397 
  110200    333.70124   -185986.17   -185967.84    992.67302 
  110300    344.57087   -185986.73    -185967.8    3571.0743 
  110400    326.47713   -185985.78   -185967.84    6608.4043 
  110500    330.04281   -185986.06   -185967.92    3451.1164 
  110600    323.86758   -185985.87   -185968.08   -3800.1176 
  110700    328.31255   -185986.61   -185968.57   -2995.5637 
  110800    297.40177   -185986.18   -185969.85   -2363.7961 
  110900    303.09939   -185987.32   -185970.67   -9714.8364 
  111000    303.06355   -185987.31   -185970.66   -8454.8075 
  111100    318.44634   -185987.68   -185970.18   -1614.7358 
  111200    325.15242   -185987.41   -185969.55    1243.7687 
  111300    334.12936   -185987.32   -185968.96    4604.9811 
  111400    333.01328   -185986.69    -185968.4    6435.6275 
  111500    338.73119   -185986.72   -185968.11    187.27545 
  111600    329.45845   -185986.14   -185968.04   -2527.2599 
  111700    327.79557   -185986.17   -185968.16   -4674.0494 
  111800     329.0004   -185986.52   -185968.44   -9481.4325 
  111900    330.26585      -185987   -185968.86   -4057.0017 
  112000    315.81288   -185986.74   -185969.39   -5552.1553 
  112100    322.78255   -185988.07   -185970.34    1241.3563 
  112200    323.59252   -185988.92   -185971.14    3594.1626 
  112300    315.51922   -185988.82   -185971.49   -336.54221 
  112400    299.53806   -185987.64   -185971.18   -1566.1845 
  112500    315.29973   -185987.71   -185970.39   -3332.2612 
  112600    307.06986   -185986.68   -185969.81   -3426.0511 
  112700    324.54713   -185987.24   -185969.41   -4766.2118 
  112800    334.69015   -185987.34   -185968.96   -7321.2295 
  112900      321.007   -185986.14   -185968.51   -1260.5074 
  113000    344.35057   -185986.84   -185967.92   -4291.4766 
  113100    326.42685   -185985.25   -185967.32   -234.27618 
  113200     337.1547   -185985.28   -185966.76    2287.3167 
  113300      360.436   -185986.28   -185966.48    -1893.452 
  113400    321.74869   -185984.35   -185966.67   -1855.9824 
  113500    321.72649    -185984.7   -185967.02   -7539.4304 
  113600    324.47302   -185985.44   -185967.61   -7738.2049 
  113700    312.90676   -185985.77   -185968.58   -6612.4512 
  113800     306.5264   -185986.35   -185969.51   -5285.4052 
  113900     329.7661   -185987.99   -185969.87   -3489.5381 
  114000    296.42384   -185986.11   -185969.83   -4618.1376 
  114100    311.78249   -185986.56   -185969.43    1576.0011 
  114200    310.25797   -185986.01   -185968.96   -639.87159 
  114300     320.4158   -185985.95   -185968.35   -3718.8607 
  114400    324.86951   -185985.67   -185967.82   -1798.7228 
  114500    334.71107   -185985.71   -185967.32   -4277.2577 
  114600    347.99177   -185986.15   -185967.03   -1755.1186 
  114700    336.31279   -185985.36   -185966.89   -1249.8325 
  114800    334.20311   -185985.22   -185966.86    -3752.982 
  114900    342.50956   -185986.01    -185967.2   -4174.7137 
  115000    319.18539   -185985.72   -185968.19   -1315.6958 
  115100    340.87032   -185987.87   -185969.14   -3180.0927 
  115200    323.05921   -185987.22   -185969.47   -6100.7929 
  115300    328.53647   -185987.49   -185969.44    351.43268 
  115400    314.42945   -185986.36   -185969.09   -3676.0459 
  115500     326.5662   -185986.49   -185968.55     191.5765 
  115600    322.55942   -185985.81   -185968.09   -2197.4773 
  115700    332.82599   -185986.07   -185967.79   -4662.6395 
  115800    330.86095   -185985.72   -185967.54   -3120.1587 
  115900    325.35566   -185985.28   -185967.41   -2417.2676 
  116000    333.98151    -185985.7   -185967.35   -2109.2541 
  116100    329.58366   -185985.66   -185967.55   -149.39059 
  116200    359.24425    -185987.7   -185967.97   -1043.8624 
  116300    334.96541   -185986.95   -185968.55    2994.1012 
  116400     318.1959   -185986.76   -185969.28    -2708.061 
  116500    319.07771   -185987.77   -185970.24   -6157.8676 
  116600    296.87027   -185987.36   -185971.06   -4381.7288 
  116700    315.11121   -185988.64   -185971.33    -951.1386 
  116800    296.35623   -185987.14   -185970.86    2134.3724 
  116900    313.94526   -185986.52   -185969.27    1252.8856 
  117000    327.97942   -185986.37   -185968.35   -525.77262 
  117100    336.18059    -185986.2   -185967.74    2683.9296 
  117200     330.5286    -185985.5   -185967.34    2359.2996 
  117300    357.62621   -185986.53   -185966.89   -3578.4258 
  117400    345.03619   -185985.72   -185966.77    -1578.233 
  117500    345.86236   -185985.96   -185966.96   -1219.7299 
  117600    348.28447   -185986.57   -185967.44   -1655.6831 
  117700    314.24038   -185985.47   -185968.21   -998.72952 
  117800    311.01554   -185985.85   -185968.77   -4201.8141 
  117900    318.52617   -185986.47   -185968.97   -7315.5588 
  118000    317.44138   -185986.37   -185968.93    2188.3529 
  118100    338.27555   -185987.19   -185968.61    2566.4271 
  118200    319.05611   -185985.62   -185968.09     993.6632 
  118300    364.34131   -185986.84   -185966.82    779.71979 
  118400    347.28043   -185985.26   -185966.18     1597.485 
  118500    339.64029   -185984.91   -185966.25   -964.45242 
  118600    368.26969   -185986.89   -185966.66    -6574.279 
  118700    315.86612    -185984.7   -185967.34   -4842.4323 
  118800    340.82109   -185986.41   -185967.68   -1101.5991 
  118900    316.65314   -185985.19    -185967.8    -5948.918 
  119000    338.97182   -185986.43   -185967.81   -119.78891 
  119100    344.36341   -185986.75   -185967.83   -2838.7497 
  119200    324.18662    -185985.7   -185967.89   -529.12301 
  119300    330.37121   -185986.14   -185967.99    -4447.621 
  119400    331.10567   -185986.33   -185968.14   -2888.4672 
  119500    319.23632   -185985.87   -185968.33   -2494.9071 
  119600     311.2925   -185985.48   -185968.38   -5859.4464 
  119700    316.01143   -185985.61   -185968.25   -5354.9099 
  119800    325.72518   -185985.77   -185967.88    1812.5237 
  119900    327.52868   -185985.49    -185967.5    1749.4982 
  120000    360.29332   -185987.03   -185967.24   -1189.3635 
  120100    352.28149   -185986.41   -185967.06   -2544.0137 
  120200    347.24123   -185986.12   -185967.04    429.84354 
  120300    316.17413    -185984.7   -185967.33   -3466.0972 
  120400    324.34918   -185985.76   -185967.94   -12591.302 
  120500    328.67661   -185986.75   -185968.69   -1006.4086 
  120600    316.92253   -185986.68   -185969.27   -919.98363 
  120700    311.96361   -185986.62   -185969.48   -268.61218 
  120800    316.99955   -185986.77   -185969.35   -795.59476 
  120900    325.47433   -185986.61   -185968.73   -2166.1423 
  121000    351.33121   -185987.02   -185967.72   -2468.1269 
  121100    338.42755   -185985.72   -185967.13   -4037.5286 
  121200    351.19733   -185986.22   -185966.93   -1197.2691 
  121300    329.03378   -185985.13   -185967.05   -65.811708 
  121400    338.90959   -185985.88   -185967.27   -7003.3376 
  121500     347.9692   -185986.64   -185967.52     742.6019 
  121600    330.66047   -185986.03   -185967.87   -1012.3276 
  121700    336.66757   -185986.71   -185968.22   -4573.3109 
  121800    335.67606    -185987.1   -185968.66   -2396.7727 
  121900    318.27861   -185986.81   -185969.33    2545.6262 
  122000    316.37777   -185987.49   -185970.11   -2299.9965 
  122100     319.8181   -185988.21   -185970.64   -1702.9871 
  122200    309.61159   -185987.58   -185970.58   -1638.1923 
  122300     305.4373   -185986.13   -185969.35    1325.8913 
  122400    332.76761   -185986.45   -185968.17    46.782845 
  122500    333.14486   -185986.12   -185967.81   -2082.0994 
  122600    328.59926   -185985.63   -185967.58   -1364.4991 
  122700    331.49432   -185985.74   -185967.53    994.07207 
  122800    317.75331   -185985.06    -185967.6   -116.87855 
  122900    333.94936   -185986.04    -185967.7    880.83041 
  123000    330.85166    -185986.1   -185967.92    1355.2402 
  123100    317.83183   -185985.78   -185968.32    2986.2714 
  123200    300.32446   -185985.28   -185968.79    498.84269 
  123300    311.59553   -185986.08   -185968.96   -2926.3935 
  123400    314.46541   -185985.91   -185968.63    2945.6673 
  123500    324.41605   -185985.46   -185967.64   -2856.6622 
  123600    323.64012   -185984.49   -185966.71   -5355.6599 
  123700    327.90271   -185984.36   -185966.35   -6094.9203 
  123800    330.72665   -185984.33   -185966.17   -4604.8077 
  123900    328.26746   -185984.07   -185966.04   -2158.1507 
  124000    341.62587   -185984.72   -185965.95   -6089.4809 
  124100    330.24458   -185984.17   -185966.03   -1100.6462 
  124200    338.06468   -185985.03   -185966.46    688.16427 
  124300    310.46376   -185984.42   -185967.36   -1582.1721 
  124400    315.22497   -185985.53   -185968.21    58.880235 
  124500    315.41785   -185985.86   -185968.53   -528.48328 
  124600    319.23635   -185986.07   -185968.53   -8310.9682 
  124700    310.97572   -185985.34   -185968.25   -2807.2026 
  124800    327.98254   -185985.69   -185967.68   -10282.161 
  124900    334.92381   -185985.43   -185967.03   -4564.4392 
[...]
  560700    316.36668   -185985.73   -185968.35    -1209.965 
  560800    303.01934   -185985.35   -185968.71   -5414.7232 
  560900    325.10065   -185986.41   -185968.55    -987.5804 
  561000    351.52035   -185986.98   -185967.67   -5077.6334 
  561100    336.81216   -185984.93   -185966.43    3961.2817 
  561200    348.75225   -185985.14   -185965.98    2307.0054 
  561300    347.53988    -185985.4    -185966.3    2403.4798 
  561400    350.67563   -185986.13   -185966.87    4123.9515 
  561500    321.30833   -185985.17   -185967.52    2346.2748 
  561600     318.7859   -185985.46   -185967.95    937.31521 
  561700    314.00494   -185985.44   -185968.19   -1293.5402 
  561800    330.62116   -185986.42   -185968.26    -236.4071 
  561900    316.82143   -185985.71   -185968.31    1024.0938 
  562000    329.36012   -185986.35   -185968.26   -3631.7634 
  562100    325.62119   -185985.85   -185967.96   -5862.5927 
  562200    341.83513   -185985.89   -185967.11    2648.0343 
  562300    326.90886   -185984.12   -185966.16    3295.7017 
  562400    337.81626   -185984.22   -185965.66    2893.2819 
  562500    338.08756   -185984.09   -185965.52    1232.4348 
  562600     336.0535   -185984.19   -185965.73    1402.3817 
  562700     330.6993   -185984.41   -185966.24   -1327.4687 
  562800     327.7606   -185985.14   -185967.13   -2297.2301 
  562900     315.6896   -185985.21   -185967.87   -4147.8656 
  563000    314.04755   -185985.37   -185968.12   -4807.8878 
  563100     317.8028   -185985.47   -185968.01   -318.70404 
  563200    323.50405   -185985.44   -185967.66   -907.10583 
  563300    333.66689   -185985.64   -185967.31   -5053.2554 
  563400    321.13048   -185984.83   -185967.19    338.07887 
  563500    318.65094   -185984.71    -185967.2    2896.3191 
  563600    328.58212   -185985.32   -185967.27    1560.8889 
  563700    330.21168   -185985.66   -185967.52   -2293.2333 
  563800    312.15829   -185985.19   -185968.04   -3095.7842 
  563900    308.17589   -185985.39   -185968.46    1166.8633 
  564000    329.02948   -185986.65   -185968.57    1815.6459 
  564100     317.4751   -185985.97   -185968.53    2606.2862 
  564200    325.29345   -185986.04   -185968.17    -486.2736 
  564300    334.11655   -185985.77   -185967.41    1522.3668 
  564400    338.08407   -185985.29   -185966.71    4429.7802 
  564500    348.61795   -185985.48   -185966.33    2138.1964 
  564600    330.02503    -185984.5   -185966.37   -988.60167 
  564700    352.93435   -185985.98   -185966.59    2972.6896 
  564800    322.37065   -185984.94   -185967.23    713.36437 
  564900    321.09963   -185985.52   -185967.88    1792.5404 
  565000    305.84088   -185985.48   -185968.68    3013.1476 
  565100    324.71898   -185987.17   -185969.33    4525.5183 
  565200    298.54348   -185986.49   -185970.09    5405.0188 
  565300    306.88475   -185988.13   -185971.27   -3289.8313 
  565400    284.57879    -185987.5   -185971.87   -1407.7815 
  565500    289.08781   -185987.34   -185971.46   -1539.3549 
  565600    302.03151   -185987.15   -185970.56    2142.4797 
  565700    319.06576   -185987.38   -185969.85    2119.2708 
  565800    315.29192   -185986.62    -185969.3    8987.8442 
  565900    316.45524   -185986.07   -185968.68    1087.1318 
  566000    331.21084   -185986.27   -185968.07   -3209.5756 
  566100    343.91477   -185986.44   -185967.55   -1481.7734 
  566200    346.10829   -185986.26   -185967.24   -3303.9605 
  566300    337.65215   -185985.64   -185967.09    -3017.316 
  566400    321.29505   -185984.61   -185966.96    512.53613 
  566500    325.12578   -185984.85   -185966.99    802.25291 
  566600    327.36975   -185985.13   -185967.14    2135.5705 
  566700    311.44863   -185984.63   -185967.52    4290.2589 
  566800    329.70416   -185986.13   -185968.01    1024.3475 
  566900    323.50938   -185986.54   -185968.77    1562.6021 
  567000    314.30898   -185986.62   -185969.35   -6774.5714 
  567100    302.16117   -185986.25   -185969.65   -3495.4298 
  567200    329.72941   -185987.51   -185969.39   -3177.1905 
  567300    328.46002   -185986.81   -185968.76   -3029.8299 
  567400     322.2921   -185985.59   -185967.89    203.79041 
  567500    320.10345   -185984.91   -185967.33    1543.0715 
  567600    339.59559   -185985.73   -185967.07   -3214.7529 
  567700    335.36657    -185985.4   -185966.98    448.96629 
  567800    325.02097   -185984.91   -185967.05   -8482.4677 
  567900    329.26674   -185985.43   -185967.34   -6005.6882 
  568000    330.93349   -185985.79   -185967.61   -983.71729 
  568100    331.68886   -185986.09   -185967.87    5791.0965 
  568200    327.37023   -185986.28   -185968.29    6895.6271 
  568300    319.14786   -185986.44   -185968.91     3125.089 
  568400    314.66592   -185986.85   -185969.56   -2556.1459 
  568500    300.84322   -185986.43   -185969.91   -5595.2078 
  568600    316.38854   -185987.04   -185969.66   -8568.9141 
  568700    321.67573    -185986.4   -185968.73   -9022.0357 
  568800    320.44161   -185985.34   -185967.74   -1116.6504 
  568900    331.35576   -185985.53   -185967.33   -2522.7573 
  569000    345.07206   -185986.13   -185967.17   -3789.2042 
  569100    336.38773   -185985.72   -185967.24    3655.3527 
  569200    340.59611   -185986.19   -185967.48    3580.9054 
  569300    312.63119   -185985.03   -185967.86   -198.38866 
  569400       324.19   -185986.01    -185968.2    117.22275 
  569500    329.44473   -185986.67   -185968.57   -4802.8078 
  569600    333.13327   -185987.15   -185968.85   -2494.3399 
  569700    330.49499   -185987.27   -185969.12   -1354.6724 
  569800    307.34929   -185986.28   -185969.39    548.77727 
  569900    331.62521   -185987.57   -185969.35    3101.0893 
  570000    327.22772   -185986.91   -185968.93    2408.2978 
  570100    304.70534   -185984.92   -185968.18    17.141615 
  570200    330.22898   -185985.41   -185967.27   -3731.6743 
  570300    339.64147   -185985.25   -185966.59   -560.37118 
  570400    350.25067   -185985.51   -185966.27   -4538.0224 
  570500    339.83944    -185984.9   -185966.23   -7088.3879 
  570600    334.99699   -185984.62   -185966.22   -5817.8773 
  570700    336.98342   -185984.89   -185966.38    417.61539 
  570800    328.65201   -185984.89   -185966.83   -406.78714 
  570900    327.77664   -185985.64   -185967.64   -2112.9091 
  571000    308.36175   -185985.37   -185968.43   -2707.9844 
  571100    329.29937   -185986.85   -185968.76   -232.51325 
  571200    314.41265   -185985.96   -185968.68   -1638.7946 
  571300    323.49057   -185986.03   -185968.26   -1590.0439 
  571400    324.80835   -185985.26   -185967.42   -3207.8674 
  571500    346.47126   -185985.61   -185966.58    436.45214 
  571600    330.28168   -185984.47   -185966.32   -3372.0385 
  571700    344.89953   -185985.36   -185966.41   -1184.9864 
  571800    326.39828   -185984.62   -185966.68   -4443.4013 
  571900    321.39566   -185984.74   -185967.09   -5294.3194 
  572000    316.84792   -185984.94   -185967.54   -627.85891 
  572100    344.49407   -185986.99   -185968.06    548.20991 
  572200    313.28769   -185985.76   -185968.55    -1100.298 
  572300    324.72837   -185986.68   -185968.84   -495.59514 
  572400     307.5321   -185985.88   -185968.98    1193.5216 
  572500     316.9495   -185986.03   -185968.62   -3304.3904 
  572600    325.16183   -185985.34   -185967.48   -8172.9467 
  572700    349.36598   -185985.68   -185966.48   -3976.0205 
  572800    333.45918   -185984.55   -185966.23   -3236.1939 
  572900    351.42232   -185985.46   -185966.16   -652.47489 
  573000    348.11409   -185985.41   -185966.29   -2979.4837 
  573100    330.30399   -185984.75   -185966.61    1589.0754 
  573200    337.37732   -185985.79   -185967.25   -2203.4422 
  573300    332.97311   -185986.44   -185968.15    615.03211 
  573400    327.52402   -185986.61   -185968.62   -6034.9544 
  573500    320.01345   -185986.27   -185968.69   -6887.4333 
  573600    327.67063   -185986.57   -185968.57   -3749.7707 
  573700    326.58895   -185986.27   -185968.33    1420.8778 
  573800    321.98179   -185985.75   -185968.06   -23.207985 
  573900     323.0874   -185985.54   -185967.79    -447.4944 
  574000    329.51377   -185985.61    -185967.5   -1861.7908 
  574100    348.85523   -185986.44   -185967.28   -443.03153 
  574200    342.49773   -185986.05   -185967.23   -4699.1862 
  574300    346.53949   -185986.47   -185967.43   -5197.1779 
  574400    333.77038   -185986.16   -185967.82   -7347.5771 
  574500    324.03964   -185986.37   -185968.57   -635.74417 
  574600    309.16641   -185986.65   -185969.66    -1654.865 
  574700    314.77129   -185987.61   -185970.32   -848.19475 
  574800    309.25017   -185987.24   -185970.25   -3596.1059 
  574900    301.69829   -185986.27   -185969.69    1154.7809 
  575000    322.82944   -185986.81   -185969.07   -6024.3739 
  575100    320.81775    -185986.3   -185968.68    1821.6958 
  575200    313.49791   -185985.51   -185968.28    262.94369 
  575300    334.83815   -185986.16   -185967.77    3190.6515 
  575400    350.53758   -185986.51   -185967.25   -1081.5333 
  575500    321.88895   -185984.51   -185966.83   -7010.2231 
  575600    319.15181   -185983.99   -185966.45   -7971.6472 
  575700    351.97908   -185985.53    -185966.2    -2106.566 
  575800    333.36626   -185984.76   -185966.45   -2854.1369 
  575900    334.85361   -185985.83   -185967.44   -8557.4505 
  576000    310.61632   -185985.68   -185968.62    505.12467 
  576100    322.79717   -185986.64   -185968.91    2114.1585 
  576200    325.68351   -185986.71   -185968.81    3717.5593 
  576300    329.98642   -185986.66   -185968.54   -2610.1444 
  576400    322.21835    -185985.8    -185968.1   -4595.3216 
  576500    330.11999   -185985.74   -185967.61   -6409.2135 
  576600     336.8201   -185985.64   -185967.14   -118.16945 
  576700    336.24477      -185985   -185966.53    1359.2606 
  576800    351.20561    -185985.3      -185966    1770.9138 
  576900    353.01419   -185985.15   -185965.75    1889.0387 
  577000    347.44873   -185985.18   -185966.09     1089.805 
  577100    330.58063   -185985.47   -185967.31    3810.6159 
  577200    321.61238   -185985.92   -185968.25   -4441.7619 
  577300    318.53046   -185986.28   -185968.78   -2195.0614 
  577400    333.20241   -185987.25   -185968.95    -466.6154 
  577500    337.93715   -185987.44   -185968.88   -1607.7609 
  577600    317.15335   -185985.97   -185968.55    2577.2682 
  577700     319.4256   -185985.44   -185967.89    -3901.544 
  577800    318.47274   -185984.56   -185967.07   -577.46305 
  577900    336.95649   -185984.97   -185966.45   -2794.3571 
  578000    347.89708   -185985.39   -185966.28   -3742.4542 
  578100    318.18939   -185984.04   -185966.56    4701.0104 
  578200    339.71812   -185985.59   -185966.93    706.61109 
  578300    320.87977   -185984.96   -185967.33    616.39805 
  578400    336.07102   -185986.03   -185967.57    4659.4934 
  578500    342.27344   -185986.48   -185967.68    457.32803 
  578600    328.23449   -185985.95   -185967.92     727.2942 
  578700    337.23923   -185986.64   -185968.11   -2941.8609 
  578800    315.70937   -185985.71   -185968.37   -1607.3174 
  578900    342.32059   -185987.44   -185968.63    52.652675 
  579000    315.91964   -185986.65    -185969.3   -1402.4135 
  579100    309.56687   -185987.55   -185970.54   -7369.4787 
  579200    291.03495   -185986.93   -185970.95   -2412.5473 
  579300    300.85905   -185987.19   -185970.66    4684.2837 
  579400     307.2836   -185986.76   -185969.88    579.76529 
  579500    325.11291   -185986.81   -185968.95   -1924.7888 
  579600    328.39272   -185986.35    -185968.3    720.33664 
  579700    330.44115   -185986.08   -185967.92   -2061.1738 
  579800    344.37446   -185986.66   -185967.74   -1753.2318 
  579900    351.46097   -185986.98   -185967.67    496.02429 
  580000    333.18696   -185986.14   -185967.84   -1875.8596 
  580100    335.35006   -185986.39   -185967.97   -2390.4218 
  580200    316.66335   -185985.54   -185968.15    3704.4698 
  580300    319.00345   -185985.89   -185968.37    2803.4264 
  580400    322.71704   -185986.42   -185968.69    880.00348 
  580500    309.96163   -185985.98   -185968.95   -2361.3623 
  580600    311.73558    -185986.1   -185968.98    3497.2572 
  580700    322.15394   -185986.41   -185968.71   -2413.0688 
  580800    336.71174   -185986.56   -185968.07   -896.22505 
  580900    336.01488   -185985.77   -185967.31   -4822.4473 
  581000    333.37247   -185985.06   -185966.75     1352.445 
  581100    342.78696   -185985.24    -185966.4   -6710.3758 
  581200    341.17526   -185985.12   -185966.37   -3156.5377 
  581300    347.84614   -185985.91    -185966.8   -4777.1359 
  581400    326.12397    -185985.6   -185967.68    2779.6499 
  581500    324.63453    -185986.2   -185968.36    422.85612 
  581600    318.46413   -185986.06   -185968.56    1702.0896 
  581700    323.59493   -185986.34   -185968.56   -2502.4898 
  581800    310.21803   -185985.63   -185968.59     274.2605 
  581900    312.89906   -185985.58   -185968.39   -587.58286 
  582000    335.29012   -185986.24   -185967.82   -1234.1968 
  582100    324.64667   -185985.11   -185967.28   -3092.0344 
  582200    340.10053   -185985.42   -185966.74   -2944.1099 
  582300    343.10156   -185985.46   -185966.61     2416.929 
  582400    320.94862   -185984.45   -185966.82   -2135.8545 
  582500    335.35147   -185985.65   -185967.23   -2207.9152 
  582600    325.55699   -185986.24   -185968.36   -6069.4314 
  582700    330.82925   -185987.61   -185969.43   -545.04784 
  582800    313.45467   -185986.93   -185969.71   -7842.1982 
  582900    312.52026   -185986.75   -185969.59   -7860.6664 
  583000    316.35588   -185986.45   -185969.07   -3411.7961 
  583100     318.9656    -185985.8   -185968.27    4954.9273 
  583200    326.48341   -185985.58   -185967.65    5456.5403 
  583300    329.89466    -185985.4   -185967.28    144.03233 
  583400    358.49394   -185986.97   -185967.27    5478.4904 
  583500    327.97905    -185985.5   -185967.48   -1756.5216 
  583600    328.43129   -185985.83   -185967.79    -5815.387 
  583700     337.4348   -185986.72   -185968.18   -2174.4603 
  583800    328.17367   -185986.96   -185968.94   -3448.9317 
  583900    324.68752   -185987.85   -185970.01   -4155.7607 
  584000    302.80632   -185987.05   -185970.41   -4169.7902 
  584100    299.65765   -185986.71   -185970.24   -5869.7574 
  584200    312.03346   -185986.93   -185969.79    -2405.161 
  584300    330.05341   -185987.44   -185969.31   -3625.9351 
  584400    333.22854    -185987.1   -185968.79   -2479.9961 
  584500    322.67774   -185986.08   -185968.35    695.33664 
  584600    335.99186   -185986.53   -185968.07    5668.6174 
  584700    306.38393   -185984.65   -185967.81   -2411.1693 
  584800    326.65851   -185985.27   -185967.33   -2241.1244 
  584900    342.44827   -185985.54   -185966.73   -2171.3409 
  585000    348.14222   -185985.59   -185966.46    2652.8337 
  585100    338.19773   -185985.04   -185966.46   -350.26905 
  585200    329.31034   -185984.87   -185966.77   -1948.4438 
  585300     322.1509   -185985.41   -185967.71   -204.19357 
  585400    332.05962   -185986.84    -185968.6    1393.1083 
  585500    322.61761   -185986.82   -185969.09   -6277.4964 
  585600    298.03209   -185985.58    -185969.2    554.16828 
  585700     320.9986   -185986.51   -185968.87   -1641.1231 
  585800      326.138    -185986.2   -185968.28   -1137.6766 
  585900     317.9827   -185985.02   -185967.55    5253.9161 
  586000    352.70798    -185986.3   -185966.92    655.50054 
  586100    327.01846   -185984.62   -185966.66    962.06287 
  586200    332.65556   -185985.05   -185966.78   -5680.9774 
  586300    331.18579   -185985.25   -185967.06   -2240.6468 
  586400    325.61901   -185985.21   -185967.32   -1194.9136 
  586500    343.57732   -185986.42   -185967.55   -2337.3944 
  586600    334.07198   -185986.19   -185967.84   -6569.2526 
  586700    341.37701   -185986.77   -185968.02   -868.00373 
  586800    309.90605   -185985.14   -185968.12    7246.1771 
  586900    320.95426   -185985.66   -185968.02     -956.977 
  587000    342.41505   -185986.69   -185967.88   -7550.4904 
  587100    335.44686   -185986.22   -185967.79   -3709.8713 
  587200    335.06469    -185986.1    -185967.7   -2148.2426 
  587300    346.87754   -185986.83   -185967.78   -1985.7239 
  587400    309.76969   -185984.94   -185967.92    -3364.775 
  587500    335.63289   -185986.43   -185967.99    5039.7982 
  587600     327.2794   -185986.37   -185968.39     450.2522 
  587700    321.59554   -185986.89   -185969.22    1317.9147 
  587800    299.45239   -185986.39   -185969.94   -671.03367 
  587900    304.69595   -185986.85   -185970.11     1782.683 
  588000    325.65812   -185987.64   -185969.75   -8463.3835 
  588100     321.8687   -185986.85   -185969.17   -3027.1114 
  588200    329.41351   -185986.56   -185968.46    1623.5218 
  588300    327.67365   -185985.86   -185967.86    1412.3972 
  588400     329.2684   -185985.56   -185967.47    1514.8032 
  588500    320.89081   -185985.05   -185967.42   -1570.8391 
  588600    317.59539   -185984.87   -185967.42    6134.9315 
  588700    336.99634   -185985.96   -185967.45    1414.8911 
  588800     343.1159   -185986.37   -185967.52    -1501.354 
  588900    338.95934    -185986.3   -185967.68   -5603.2165 
  589000     336.3614   -185986.54   -185968.06   -1078.4503 
  589100    339.42682   -185987.27   -185968.62    413.05096 
  589200    314.65918   -185986.89    -185969.6    579.66982 
  589300    305.47094   -185987.53   -185970.75   -729.37557 
  589400    315.10503   -185988.43   -185971.12    3457.4599 
  589500    309.67871   -185987.99   -185970.97    816.30931 
  589600    305.77444   -185987.34   -185970.55    -927.2874 
  589700    319.14395   -185987.32   -185969.79    2869.2518 
  589800    313.80048   -185986.23   -185968.99   -4655.3784 
  589900     321.9247   -185985.98   -185968.29   -573.53244 
  590000    337.20546   -185986.28   -185967.75   -4096.8888 
  590100    333.01818   -185985.72   -185967.43   -816.07905 
  590200    346.38701   -185986.25   -185967.23    -2181.635 
  590300    335.30534   -185985.88   -185967.46    3422.0227 
  590400    342.02125   -185986.79      -185968   -664.83157 
  590500    318.89102   -185986.32   -185968.81    1999.1267 
  590600    322.57882   -185987.13   -185969.41   -2361.9073 
  590700     337.7371   -185988.16    -185969.6   -293.49869 
  590800    330.41989   -185987.64   -185969.49   -513.55311 
  590900    331.62388    -185987.3   -185969.09    2998.8942 
  591000    323.84376   -185986.13   -185968.34   -582.40869 
  591100    326.56594   -185985.45   -185967.51   -2089.7844 
  591200     336.5272   -185985.42   -185966.94   -2828.3368 
  591300    352.66845   -185986.29   -185966.91    -1932.791 
  591400    317.65013   -185984.46   -185967.01    1218.5228 
  591500    318.41077   -185984.53   -185967.04   -3742.5368 
  591600    348.57496   -185986.27   -185967.12   -511.16025 
  591700    312.16078   -185984.44    -185967.3    7630.1064 
  591800    326.07696   -185985.16   -185967.25   -498.05015 
  591900    325.44537   -185984.98    -185967.1   -2328.4523 
  592000    335.04514   -185985.26   -185966.85   -1933.5804 
  592100     344.4116    -185985.4   -185966.48   -4044.7613 
  592200      332.786   -185984.47   -185966.19    -2036.896 
  592300    358.28125    -185985.7   -185966.01   -3073.6459 
  592400    342.29236   -185985.06   -185966.26    2895.0238 
  592500    335.97988   -185985.58   -185967.12    4018.9086 
  592600    327.63964   -185986.02   -185968.03    1912.4663 
  592700    318.20371   -185985.98    -185968.5   -1738.9253 
  592800    332.79594   -185986.95   -185968.66    697.77734 
 